s 1.000000000 _1_ AGT  --- 0 cbr 1000 [0 0 0 0] ------- [1:0 0:0 32 0] [0] 0 0
r 1.000000000 _1_ RTR  --- 0 cbr 1000 [0 0 0 0] ------- [1:0 0:0 32 0] [0] 0 0
s 1.000000000 _1_ RTR  --- 0 AODV 48 [0 0 0 0] ------- [1:255 -1:255 30 0] [0x2 1 1 [0 0] [1 4]] (REQUEST)
s 1.000535000 _1_ MAC  --- 0 AODV 106 [0 ffffffff 1 800] ------- [1:255 -1:255 30 0] [0x2 1 1 [0 0] [1 4]] (REQUEST)
r 1.001383603 _2_ MAC  --- 0 AODV 48 [0 ffffffff 1 800] ------- [1:255 -1:255 30 0] [0x2 1 1 [0 0] [1 4]] (REQUEST)
r 1.001383691 _19_ MAC  --- 0 AODV 48 [0 ffffffff 1 800] ------- [1:255 -1:255 30 0] [0x2 1 1 [0 0] [1 4]] (REQUEST)
r 1.001383781 _34_ MAC  --- 0 AODV 48 [0 ffffffff 1 800] ------- [1:255 -1:255 30 0] [0x2 1 1 [0 0] [1 4]] (REQUEST)
r 1.001383786 _33_ MAC  --- 0 AODV 48 [0 ffffffff 1 800] ------- [1:255 -1:255 30 0] [0x2 1 1 [0 0] [1 4]] (REQUEST)
r 1.001408603 _2_ RTR  --- 0 AODV 48 [0 ffffffff 1 800] ------- [1:255 -1:255 30 0] [0x2 1 1 [0 0] [1 4]] (REQUEST)
r 1.001408691 _19_ RTR  --- 0 AODV 48 [0 ffffffff 1 800] ------- [1:255 -1:255 30 0] [0x2 1 1 [0 0] [1 4]] (REQUEST)
r 1.001408781 _34_ RTR  --- 0 AODV 48 [0 ffffffff 1 800] ------- [1:255 -1:255 30 0] [0x2 1 1 [0 0] [1 4]] (REQUEST)
r 1.001408786 _33_ RTR  --- 0 AODV 48 [0 ffffffff 1 800] ------- [1:255 -1:255 30 0] [0x2 1 1 [0 0] [1 4]] (REQUEST)
s 1.001550650 _2_ RTR  --- 0 AODV 48 [0 ffffffff 1 800] ------- [2:255 -1:255 29 0] [0x2 2 1 [0 0] [1 4]] (REQUEST)
s 1.001785650 _2_ MAC  --- 0 AODV 106 [0 ffffffff 2 800] ------- [2:255 -1:255 29 0] [0x2 2 1 [0 0] [1 4]] (REQUEST)
s 1.002289918 _19_ RTR  --- 0 AODV 48 [0 ffffffff 1 800] ------- [19:255 -1:255 29 0] [0x2 2 1 [0 0] [1 4]] (REQUEST)
r 1.002634111 _5_ MAC  --- 0 AODV 48 [0 ffffffff 2 800] ------- [2:255 -1:255 29 0] [0x2 2 1 [0 0] [1 4]] (REQUEST)
r 1.002634147 _16_ MAC  --- 0 AODV 48 [0 ffffffff 2 800] ------- [2:255 -1:255 29 0] [0x2 2 1 [0 0] [1 4]] (REQUEST)
r 1.002634253 _1_ MAC  --- 0 AODV 48 [0 ffffffff 2 800] ------- [2:255 -1:255 29 0] [0x2 2 1 [0 0] [1 4]] (REQUEST)
r 1.002634376 _17_ MAC  --- 0 AODV 48 [0 ffffffff 2 800] ------- [2:255 -1:255 29 0] [0x2 2 1 [0 0] [1 4]] (REQUEST)
r 1.002659111 _5_ RTR  --- 0 AODV 48 [0 ffffffff 2 800] ------- [2:255 -1:255 29 0] [0x2 2 1 [0 0] [1 4]] (REQUEST)
r 1.002659147 _16_ RTR  --- 0 AODV 48 [0 ffffffff 2 800] ------- [2:255 -1:255 29 0] [0x2 2 1 [0 0] [1 4]] (REQUEST)
r 1.002659253 _1_ RTR  --- 0 AODV 48 [0 ffffffff 2 800] ------- [2:255 -1:255 29 0] [0x2 2 1 [0 0] [1 4]] (REQUEST)
r 1.002659376 _17_ RTR  --- 0 AODV 48 [0 ffffffff 2 800] ------- [2:255 -1:255 29 0] [0x2 2 1 [0 0] [1 4]] (REQUEST)
s 1.003248546 _19_ MAC  --- 0 AODV 106 [0 ffffffff 13 800] ------- [19:255 -1:255 29 0] [0x2 2 1 [0 0] [1 4]] (REQUEST)
r 1.004096982 _18_ MAC  --- 0 AODV 48 [0 ffffffff 13 800] ------- [19:255 -1:255 29 0] [0x2 2 1 [0 0] [1 4]] (REQUEST)
r 1.004097090 _33_ MAC  --- 0 AODV 48 [0 ffffffff 13 800] ------- [19:255 -1:255 29 0] [0x2 2 1 [0 0] [1 4]] (REQUEST)
r 1.004097108 _17_ MAC  --- 0 AODV 48 [0 ffffffff 13 800] ------- [19:255 -1:255 29 0] [0x2 2 1 [0 0] [1 4]] (REQUEST)
r 1.004097129 _31_ MAC  --- 0 AODV 48 [0 ffffffff 13 800] ------- [19:255 -1:255 29 0] [0x2 2 1 [0 0] [1 4]] (REQUEST)
r 1.004097237 _1_ MAC  --- 0 AODV 48 [0 ffffffff 13 800] ------- [19:255 -1:255 29 0] [0x2 2 1 [0 0] [1 4]] (REQUEST)
r 1.004097301 _20_ MAC  --- 0 AODV 48 [0 ffffffff 13 800] ------- [19:255 -1:255 29 0] [0x2 2 1 [0 0] [1 4]] (REQUEST)
r 1.004121982 _18_ RTR  --- 0 AODV 48 [0 ffffffff 13 800] ------- [19:255 -1:255 29 0] [0x2 2 1 [0 0] [1 4]] (REQUEST)
r 1.004122090 _33_ RTR  --- 0 AODV 48 [0 ffffffff 13 800] ------- [19:255 -1:255 29 0] [0x2 2 1 [0 0] [1 4]] (REQUEST)
r 1.004122108 _17_ RTR  --- 0 AODV 48 [0 ffffffff 13 800] ------- [19:255 -1:255 29 0] [0x2 2 1 [0 0] [1 4]] (REQUEST)
r 1.004122129 _31_ RTR  --- 0 AODV 48 [0 ffffffff 13 800] ------- [19:255 -1:255 29 0] [0x2 2 1 [0 0] [1 4]] (REQUEST)
r 1.004122237 _1_ RTR  --- 0 AODV 48 [0 ffffffff 13 800] ------- [19:255 -1:255 29 0] [0x2 2 1 [0 0] [1 4]] (REQUEST)
r 1.004122301 _20_ RTR  --- 0 AODV 48 [0 ffffffff 13 800] ------- [19:255 -1:255 29 0] [0x2 2 1 [0 0] [1 4]] (REQUEST)
s 1.004549927 _18_ RTR  --- 0 AODV 48 [0 ffffffff 13 800] ------- [18:255 -1:255 28 0] [0x2 3 1 [0 0] [1 4]] (REQUEST)
s 1.004864927 _18_ MAC  --- 0 AODV 106 [0 ffffffff 12 800] ------- [18:255 -1:255 28 0] [0x2 3 1 [0 0] [1 4]] (REQUEST)
s 1.005260384 _20_ RTR  --- 0 AODV 48 [0 ffffffff 13 800] ------- [20:255 -1:255 28 0] [0x2 3 1 [0 0] [1 4]] (REQUEST)
r 1.005713268 _20_ MAC  --- 0 AODV 48 [0 ffffffff 12 800] ------- [18:255 -1:255 28 0] [0x2 3 1 [0 0] [1 4]] (REQUEST)
r 1.005713364 _19_ MAC  --- 0 AODV 48 [0 ffffffff 12 800] ------- [18:255 -1:255 28 0] [0x2 3 1 [0 0] [1 4]] (REQUEST)
r 1.005713451 _17_ MAC  --- 0 AODV 48 [0 ffffffff 12 800] ------- [18:255 -1:255 28 0] [0x2 3 1 [0 0] [1 4]] (REQUEST)
r 1.005713589 _21_ MAC  --- 0 AODV 48 [0 ffffffff 12 800] ------- [18:255 -1:255 28 0] [0x2 3 1 [0 0] [1 4]] (REQUEST)
r 1.005713648 _31_ MAC  --- 0 AODV 48 [0 ffffffff 12 800] ------- [18:255 -1:255 28 0] [0x2 3 1 [0 0] [1 4]] (REQUEST)
r 1.005738268 _20_ RTR  --- 0 AODV 48 [0 ffffffff 12 800] ------- [18:255 -1:255 28 0] [0x2 3 1 [0 0] [1 4]] (REQUEST)
r 1.005738364 _19_ RTR  --- 0 AODV 48 [0 ffffffff 12 800] ------- [18:255 -1:255 28 0] [0x2 3 1 [0 0] [1 4]] (REQUEST)
r 1.005738451 _17_ RTR  --- 0 AODV 48 [0 ffffffff 12 800] ------- [18:255 -1:255 28 0] [0x2 3 1 [0 0] [1 4]] (REQUEST)
r 1.005738589 _21_ RTR  --- 0 AODV 48 [0 ffffffff 12 800] ------- [18:255 -1:255 28 0] [0x2 3 1 [0 0] [1 4]] (REQUEST)
r 1.005738648 _31_ RTR  --- 0 AODV 48 [0 ffffffff 12 800] ------- [18:255 -1:255 28 0] [0x2 3 1 [0 0] [1 4]] (REQUEST)
s 1.005749938 _16_ RTR  --- 0 AODV 48 [0 ffffffff 2 800] ------- [16:255 -1:255 28 0] [0x2 3 1 [0 0] [1 4]] (REQUEST)
s 1.005820515 _34_ RTR  --- 0 AODV 48 [0 ffffffff 1 800] ------- [34:255 -1:255 29 0] [0x2 2 1 [0 0] [1 4]] (REQUEST)
s 1.005923268 _20_ MAC  --- 0 AODV 106 [0 ffffffff 14 800] ------- [20:255 -1:255 28 0] [0x2 3 1 [0 0] [1 4]] (REQUEST)
s 1.006095515 _34_ MAC  --- 0 AODV 106 [0 ffffffff 22 800] ------- [34:255 -1:255 29 0] [0x2 2 1 [0 0] [1 4]] (REQUEST)
s 1.006679977 _21_ RTR  --- 0 AODV 48 [0 ffffffff 12 800] ------- [21:255 -1:255 27 0] [0x2 4 1 [0 0] [1 4]] (REQUEST)
r 1.006771609 _18_ MAC  --- 0 AODV 48 [0 ffffffff 14 800] ------- [20:255 -1:255 28 0] [0x2 3 1 [0 0] [1 4]] (REQUEST)
r 1.006771703 _21_ MAC  --- 0 AODV 48 [0 ffffffff 14 800] ------- [20:255 -1:255 28 0] [0x2 3 1 [0 0] [1 4]] (REQUEST)
r 1.006771851 _17_ MAC  --- 0 AODV 48 [0 ffffffff 14 800] ------- [20:255 -1:255 28 0] [0x2 3 1 [0 0] [1 4]] (REQUEST)
r 1.006772024 _19_ MAC  --- 0 AODV 48 [0 ffffffff 14 800] ------- [20:255 -1:255 28 0] [0x2 3 1 [0 0] [1 4]] (REQUEST)
r 1.006796609 _18_ RTR  --- 0 AODV 48 [0 ffffffff 14 800] ------- [20:255 -1:255 28 0] [0x2 3 1 [0 0] [1 4]] (REQUEST)
r 1.006796703 _21_ RTR  --- 0 AODV 48 [0 ffffffff 14 800] ------- [20:255 -1:255 28 0] [0x2 3 1 [0 0] [1 4]] (REQUEST)
r 1.006796851 _17_ RTR  --- 0 AODV 48 [0 ffffffff 14 800] ------- [20:255 -1:255 28 0] [0x2 3 1 [0 0] [1 4]] (REQUEST)
r 1.006797024 _19_ RTR  --- 0 AODV 48 [0 ffffffff 14 800] ------- [20:255 -1:255 28 0] [0x2 3 1 [0 0] [1 4]] (REQUEST)
D 1.006944296 _1_ MAC  COL 0 AODV 106 [0 ffffffff 22 800] ------- [34:255 -1:255 29 0] [0x2 2 1 [0 0] [1 4]] (REQUEST)
s 1.007041703 _21_ MAC  --- 0 AODV 106 [0 ffffffff 15 800] ------- [21:255 -1:255 27 0] [0x2 4 1 [0 0] [1 4]] (REQUEST)
r 1.007890137 _20_ MAC  --- 0 AODV 48 [0 ffffffff 15 800] ------- [21:255 -1:255 27 0] [0x2 4 1 [0 0] [1 4]] (REQUEST)
r 1.007890182 _17_ MAC  --- 0 AODV 48 [0 ffffffff 15 800] ------- [21:255 -1:255 27 0] [0x2 4 1 [0 0] [1 4]] (REQUEST)
r 1.007890231 _30_ MAC  --- 0 AODV 48 [0 ffffffff 15 800] ------- [21:255 -1:255 27 0] [0x2 4 1 [0 0] [1 4]] (REQUEST)
r 1.007890364 _18_ MAC  --- 0 AODV 48 [0 ffffffff 15 800] ------- [21:255 -1:255 27 0] [0x2 4 1 [0 0] [1 4]] (REQUEST)
r 1.007915137 _20_ RTR  --- 0 AODV 48 [0 ffffffff 15 800] ------- [21:255 -1:255 27 0] [0x2 4 1 [0 0] [1 4]] (REQUEST)
r 1.007915182 _17_ RTR  --- 0 AODV 48 [0 ffffffff 15 800] ------- [21:255 -1:255 27 0] [0x2 4 1 [0 0] [1 4]] (REQUEST)
r 1.007915231 _30_ RTR  --- 0 AODV 48 [0 ffffffff 15 800] ------- [21:255 -1:255 27 0] [0x2 4 1 [0 0] [1 4]] (REQUEST)
r 1.007915364 _18_ RTR  --- 0 AODV 48 [0 ffffffff 15 800] ------- [21:255 -1:255 27 0] [0x2 4 1 [0 0] [1 4]] (REQUEST)
s 1.008624625 _16_ MAC  --- 0 AODV 106 [0 ffffffff 10 800] ------- [16:255 -1:255 28 0] [0x2 3 1 [0 0] [1 4]] (REQUEST)
s 1.009047762 _5_ RTR  --- 0 AODV 48 [0 ffffffff 2 800] ------- [5:255 -1:255 28 0] [0x2 3 1 [0 0] [1 4]] (REQUEST)
s 1.009400341 _33_ RTR  --- 0 AODV 48 [0 ffffffff 1 800] ------- [33:255 -1:255 29 0] [0x2 2 1 [0 0] [1 4]] (REQUEST)
r 1.009473039 _5_ MAC  --- 0 AODV 48 [0 ffffffff 10 800] ------- [16:255 -1:255 28 0] [0x2 3 1 [0 0] [1 4]] (REQUEST)
r 1.009473122 _2_ MAC  --- 0 AODV 48 [0 ffffffff 10 800] ------- [16:255 -1:255 28 0] [0x2 3 1 [0 0] [1 4]] (REQUEST)
r 1.009473180 _15_ MAC  --- 0 AODV 48 [0 ffffffff 10 800] ------- [16:255 -1:255 28 0] [0x2 3 1 [0 0] [1 4]] (REQUEST)
r 1.009473222 _29_ MAC  --- 0 AODV 48 [0 ffffffff 10 800] ------- [16:255 -1:255 28 0] [0x2 3 1 [0 0] [1 4]] (REQUEST)
r 1.009473224 _30_ MAC  --- 0 AODV 48 [0 ffffffff 10 800] ------- [16:255 -1:255 28 0] [0x2 3 1 [0 0] [1 4]] (REQUEST)
r 1.009473310 _6_ MAC  --- 0 AODV 48 [0 ffffffff 10 800] ------- [16:255 -1:255 28 0] [0x2 3 1 [0 0] [1 4]] (REQUEST)
r 1.009473316 _17_ MAC  --- 0 AODV 48 [0 ffffffff 10 800] ------- [16:255 -1:255 28 0] [0x2 3 1 [0 0] [1 4]] (REQUEST)
r 1.009498039 _5_ RTR  --- 0 AODV 48 [0 ffffffff 10 800] ------- [16:255 -1:255 28 0] [0x2 3 1 [0 0] [1 4]] (REQUEST)
r 1.009498122 _2_ RTR  --- 0 AODV 48 [0 ffffffff 10 800] ------- [16:255 -1:255 28 0] [0x2 3 1 [0 0] [1 4]] (REQUEST)
r 1.009498180 _15_ RTR  --- 0 AODV 48 [0 ffffffff 10 800] ------- [16:255 -1:255 28 0] [0x2 3 1 [0 0] [1 4]] (REQUEST)
r 1.009498222 _29_ RTR  --- 0 AODV 48 [0 ffffffff 10 800] ------- [16:255 -1:255 28 0] [0x2 3 1 [0 0] [1 4]] (REQUEST)
r 1.009498224 _30_ RTR  --- 0 AODV 48 [0 ffffffff 10 800] ------- [16:255 -1:255 28 0] [0x2 3 1 [0 0] [1 4]] (REQUEST)
r 1.009498310 _6_ RTR  --- 0 AODV 48 [0 ffffffff 10 800] ------- [16:255 -1:255 28 0] [0x2 3 1 [0 0] [1 4]] (REQUEST)
r 1.009498316 _17_ RTR  --- 0 AODV 48 [0 ffffffff 10 800] ------- [16:255 -1:255 28 0] [0x2 3 1 [0 0] [1 4]] (REQUEST)
s 1.010103039 _5_ MAC  --- 0 AODV 106 [0 ffffffff 5 800] ------- [5:255 -1:255 28 0] [0x2 3 1 [0 0] [1 4]] (REQUEST)
s 1.010522806 _31_ RTR  --- 0 AODV 48 [0 ffffffff 13 800] ------- [31:255 -1:255 28 0] [0x2 3 1 [0 0] [1 4]] (REQUEST)
r 1.010951453 _16_ MAC  --- 0 AODV 48 [0 ffffffff 5 800] ------- [5:255 -1:255 28 0] [0x2 3 1 [0 0] [1 4]] (REQUEST)
r 1.010951466 _6_ MAC  --- 0 AODV 48 [0 ffffffff 5 800] ------- [5:255 -1:255 28 0] [0x2 3 1 [0 0] [1 4]] (REQUEST)
r 1.010951500 _2_ MAC  --- 0 AODV 48 [0 ffffffff 5 800] ------- [5:255 -1:255 28 0] [0x2 3 1 [0 0] [1 4]] (REQUEST)
r 1.010951573 _15_ MAC  --- 0 AODV 48 [0 ffffffff 5 800] ------- [5:255 -1:255 28 0] [0x2 3 1 [0 0] [1 4]] (REQUEST)
r 1.010951790 _29_ MAC  --- 0 AODV 48 [0 ffffffff 5 800] ------- [5:255 -1:255 28 0] [0x2 3 1 [0 0] [1 4]] (REQUEST)
r 1.010951796 _12_ MAC  --- 0 AODV 48 [0 ffffffff 5 800] ------- [5:255 -1:255 28 0] [0x2 3 1 [0 0] [1 4]] (REQUEST)
s 1.010957806 _31_ MAC  --- 0 AODV 106 [0 ffffffff 1f 800] ------- [31:255 -1:255 28 0] [0x2 3 1 [0 0] [1 4]] (REQUEST)
r 1.010976453 _16_ RTR  --- 0 AODV 48 [0 ffffffff 5 800] ------- [5:255 -1:255 28 0] [0x2 3 1 [0 0] [1 4]] (REQUEST)
r 1.010976466 _6_ RTR  --- 0 AODV 48 [0 ffffffff 5 800] ------- [5:255 -1:255 28 0] [0x2 3 1 [0 0] [1 4]] (REQUEST)
r 1.010976500 _2_ RTR  --- 0 AODV 48 [0 ffffffff 5 800] ------- [5:255 -1:255 28 0] [0x2 3 1 [0 0] [1 4]] (REQUEST)
r 1.010976573 _15_ RTR  --- 0 AODV 48 [0 ffffffff 5 800] ------- [5:255 -1:255 28 0] [0x2 3 1 [0 0] [1 4]] (REQUEST)
r 1.010976790 _29_ RTR  --- 0 AODV 48 [0 ffffffff 5 800] ------- [5:255 -1:255 28 0] [0x2 3 1 [0 0] [1 4]] (REQUEST)
r 1.010976796 _12_ RTR  --- 0 AODV 48 [0 ffffffff 5 800] ------- [5:255 -1:255 28 0] [0x2 3 1 [0 0] [1 4]] (REQUEST)
s 1.011022612 _17_ RTR  --- 0 AODV 48 [0 ffffffff 2 800] ------- [17:255 -1:255 28 0] [0x2 3 1 [0 0] [1 4]] (REQUEST)
r 1.011806148 _33_ MAC  --- 0 AODV 48 [0 ffffffff 1f 800] ------- [31:255 -1:255 28 0] [0x2 3 1 [0 0] [1 4]] (REQUEST)
r 1.011806389 _19_ MAC  --- 0 AODV 48 [0 ffffffff 1f 800] ------- [31:255 -1:255 28 0] [0x2 3 1 [0 0] [1 4]] (REQUEST)
r 1.011806527 _18_ MAC  --- 0 AODV 48 [0 ffffffff 1f 800] ------- [31:255 -1:255 28 0] [0x2 3 1 [0 0] [1 4]] (REQUEST)
r 1.011831148 _33_ RTR  --- 0 AODV 48 [0 ffffffff 1f 800] ------- [31:255 -1:255 28 0] [0x2 3 1 [0 0] [1 4]] (REQUEST)
r 1.011831389 _19_ RTR  --- 0 AODV 48 [0 ffffffff 1f 800] ------- [31:255 -1:255 28 0] [0x2 3 1 [0 0] [1 4]] (REQUEST)
r 1.011831527 _18_ RTR  --- 0 AODV 48 [0 ffffffff 1f 800] ------- [31:255 -1:255 28 0] [0x2 3 1 [0 0] [1 4]] (REQUEST)
s 1.011910436 _15_ RTR  --- 0 AODV 48 [0 ffffffff 10 800] ------- [15:255 -1:255 27 0] [0x2 4 1 [0 0] [1 4]] (REQUEST)
s 1.012056148 _33_ MAC  --- 0 AODV 106 [0 ffffffff 21 800] ------- [33:255 -1:255 29 0] [0x2 2 1 [0 0] [1 4]] (REQUEST)
s 1.012085436 _15_ MAC  --- 0 AODV 106 [0 ffffffff f 800] ------- [15:255 -1:255 27 0] [0x2 4 1 [0 0] [1 4]] (REQUEST)
r 1.012904491 _31_ MAC  --- 0 AODV 48 [0 ffffffff 21 800] ------- [33:255 -1:255 29 0] [0x2 2 1 [0 0] [1 4]] (REQUEST)
r 1.012904692 _19_ MAC  --- 0 AODV 48 [0 ffffffff 21 800] ------- [33:255 -1:255 29 0] [0x2 2 1 [0 0] [1 4]] (REQUEST)
r 1.012904934 _1_ MAC  --- 0 AODV 48 [0 ffffffff 21 800] ------- [33:255 -1:255 29 0] [0x2 2 1 [0 0] [1 4]] (REQUEST)
r 1.012929491 _31_ RTR  --- 0 AODV 48 [0 ffffffff 21 800] ------- [33:255 -1:255 29 0] [0x2 2 1 [0 0] [1 4]] (REQUEST)
r 1.012929692 _19_ RTR  --- 0 AODV 48 [0 ffffffff 21 800] ------- [33:255 -1:255 29 0] [0x2 2 1 [0 0] [1 4]] (REQUEST)
r 1.012929934 _1_ RTR  --- 0 AODV 48 [0 ffffffff 21 800] ------- [33:255 -1:255 29 0] [0x2 2 1 [0 0] [1 4]] (REQUEST)
r 1.012933729 _29_ MAC  --- 0 AODV 48 [0 ffffffff f 800] ------- [15:255 -1:255 27 0] [0x2 4 1 [0 0] [1 4]] (REQUEST)
r 1.012933769 _6_ MAC  --- 0 AODV 48 [0 ffffffff f 800] ------- [15:255 -1:255 27 0] [0x2 4 1 [0 0] [1 4]] (REQUEST)
D 1.012933970 _5_ MAC  COL 0 AODV 106 [0 ffffffff f 800] ------- [15:255 -1:255 27 0] [0x2 4 1 [0 0] [1 4]] (REQUEST)
D 1.012933991 _16_ MAC  COL 0 AODV 106 [0 ffffffff f 800] ------- [15:255 -1:255 27 0] [0x2 4 1 [0 0] [1 4]] (REQUEST)
r 1.012934011 _10_ MAC  --- 0 AODV 48 [0 ffffffff f 800] ------- [15:255 -1:255 27 0] [0x2 4 1 [0 0] [1 4]] (REQUEST)
r 1.012934179 _12_ MAC  --- 0 AODV 48 [0 ffffffff f 800] ------- [15:255 -1:255 27 0] [0x2 4 1 [0 0] [1 4]] (REQUEST)
r 1.012958729 _29_ RTR  --- 0 AODV 48 [0 ffffffff f 800] ------- [15:255 -1:255 27 0] [0x2 4 1 [0 0] [1 4]] (REQUEST)
r 1.012958769 _6_ RTR  --- 0 AODV 48 [0 ffffffff f 800] ------- [15:255 -1:255 27 0] [0x2 4 1 [0 0] [1 4]] (REQUEST)
r 1.012959011 _10_ RTR  --- 0 AODV 48 [0 ffffffff f 800] ------- [15:255 -1:255 27 0] [0x2 4 1 [0 0] [1 4]] (REQUEST)
r 1.012959179 _12_ RTR  --- 0 AODV 48 [0 ffffffff f 800] ------- [15:255 -1:255 27 0] [0x2 4 1 [0 0] [1 4]] (REQUEST)
s 1.013628666 _17_ MAC  --- 0 AODV 106 [0 ffffffff 11 800] ------- [17:255 -1:255 28 0] [0x2 3 1 [0 0] [1 4]] (REQUEST)
r 1.014477146 _21_ MAC  --- 0 AODV 48 [0 ffffffff 11 800] ------- [17:255 -1:255 28 0] [0x2 3 1 [0 0] [1 4]] (REQUEST)
r 1.014477190 _18_ MAC  --- 0 AODV 48 [0 ffffffff 11 800] ------- [17:255 -1:255 28 0] [0x2 3 1 [0 0] [1 4]] (REQUEST)
r 1.014477229 _19_ MAC  --- 0 AODV 48 [0 ffffffff 11 800] ------- [17:255 -1:255 28 0] [0x2 3 1 [0 0] [1 4]] (REQUEST)
r 1.014477250 _20_ MAC  --- 0 AODV 48 [0 ffffffff 11 800] ------- [17:255 -1:255 28 0] [0x2 3 1 [0 0] [1 4]] (REQUEST)
r 1.014477347 _30_ MAC  --- 0 AODV 48 [0 ffffffff 11 800] ------- [17:255 -1:255 28 0] [0x2 3 1 [0 0] [1 4]] (REQUEST)
r 1.014477358 _16_ MAC  --- 0 AODV 48 [0 ffffffff 11 800] ------- [17:255 -1:255 28 0] [0x2 3 1 [0 0] [1 4]] (REQUEST)
r 1.014477393 _2_ MAC  --- 0 AODV 48 [0 ffffffff 11 800] ------- [17:255 -1:255 28 0] [0x2 3 1 [0 0] [1 4]] (REQUEST)
r 1.014502146 _21_ RTR  --- 0 AODV 48 [0 ffffffff 11 800] ------- [17:255 -1:255 28 0] [0x2 3 1 [0 0] [1 4]] (REQUEST)
r 1.014502190 _18_ RTR  --- 0 AODV 48 [0 ffffffff 11 800] ------- [17:255 -1:255 28 0] [0x2 3 1 [0 0] [1 4]] (REQUEST)
r 1.014502229 _19_ RTR  --- 0 AODV 48 [0 ffffffff 11 800] ------- [17:255 -1:255 28 0] [0x2 3 1 [0 0] [1 4]] (REQUEST)
r 1.014502250 _20_ RTR  --- 0 AODV 48 [0 ffffffff 11 800] ------- [17:255 -1:255 28 0] [0x2 3 1 [0 0] [1 4]] (REQUEST)
r 1.014502347 _30_ RTR  --- 0 AODV 48 [0 ffffffff 11 800] ------- [17:255 -1:255 28 0] [0x2 3 1 [0 0] [1 4]] (REQUEST)
r 1.014502358 _16_ RTR  --- 0 AODV 48 [0 ffffffff 11 800] ------- [17:255 -1:255 28 0] [0x2 3 1 [0 0] [1 4]] (REQUEST)
r 1.014502393 _2_ RTR  --- 0 AODV 48 [0 ffffffff 11 800] ------- [17:255 -1:255 28 0] [0x2 3 1 [0 0] [1 4]] (REQUEST)
s 1.014838300 _30_ RTR  --- 0 AODV 48 [0 ffffffff 15 800] ------- [30:255 -1:255 26 0] [0x2 5 1 [0 0] [1 4]] (REQUEST)
s 1.014973300 _30_ MAC  --- 0 AODV 106 [0 ffffffff 1e 800] ------- [30:255 -1:255 26 0] [0x2 5 1 [0 0] [1 4]] (REQUEST)
s 1.015031987 _12_ RTR  --- 0 AODV 48 [0 ffffffff 5 800] ------- [12:255 -1:255 27 0] [0x2 4 1 [0 0] [1 4]] (REQUEST)
r 1.015821828 _21_ MAC  --- 0 AODV 48 [0 ffffffff 1e 800] ------- [30:255 -1:255 26 0] [0x2 5 1 [0 0] [1 4]] (REQUEST)
r 1.015821899 _16_ MAC  --- 0 AODV 48 [0 ffffffff 1e 800] ------- [30:255 -1:255 26 0] [0x2 5 1 [0 0] [1 4]] (REQUEST)
r 1.015821980 _29_ MAC  --- 0 AODV 48 [0 ffffffff 1e 800] ------- [30:255 -1:255 26 0] [0x2 5 1 [0 0] [1 4]] (REQUEST)
r 1.015821980 _17_ MAC  --- 0 AODV 48 [0 ffffffff 1e 800] ------- [30:255 -1:255 26 0] [0x2 5 1 [0 0] [1 4]] (REQUEST)
r 1.015846828 _21_ RTR  --- 0 AODV 48 [0 ffffffff 1e 800] ------- [30:255 -1:255 26 0] [0x2 5 1 [0 0] [1 4]] (REQUEST)
r 1.015846899 _16_ RTR  --- 0 AODV 48 [0 ffffffff 1e 800] ------- [30:255 -1:255 26 0] [0x2 5 1 [0 0] [1 4]] (REQUEST)
r 1.015846980 _29_ RTR  --- 0 AODV 48 [0 ffffffff 1e 800] ------- [30:255 -1:255 26 0] [0x2 5 1 [0 0] [1 4]] (REQUEST)
r 1.015846980 _17_ RTR  --- 0 AODV 48 [0 ffffffff 1e 800] ------- [30:255 -1:255 26 0] [0x2 5 1 [0 0] [1 4]] (REQUEST)
s 1.016271799 _6_ RTR  --- 0 AODV 48 [0 ffffffff 10 800] ------- [6:255 -1:255 27 0] [0x2 4 1 [0 0] [1 4]] (REQUEST)
s 1.016356888 _12_ MAC  --- 0 AODV 106 [0 ffffffff c 800] ------- [12:255 -1:255 27 0] [0x2 4 1 [0 0] [1 4]] (REQUEST)
r 1.017205324 _6_ MAC  --- 0 AODV 48 [0 ffffffff c 800] ------- [12:255 -1:255 27 0] [0x2 4 1 [0 0] [1 4]] (REQUEST)
r 1.017205403 _8_ MAC  --- 0 AODV 48 [0 ffffffff c 800] ------- [12:255 -1:255 27 0] [0x2 4 1 [0 0] [1 4]] (REQUEST)
r 1.017205461 _10_ MAC  --- 0 AODV 48 [0 ffffffff c 800] ------- [12:255 -1:255 27 0] [0x2 4 1 [0 0] [1 4]] (REQUEST)
r 1.017205558 _11_ MAC  --- 0 AODV 48 [0 ffffffff c 800] ------- [12:255 -1:255 27 0] [0x2 4 1 [0 0] [1 4]] (REQUEST)
r 1.017205631 _15_ MAC  --- 0 AODV 48 [0 ffffffff c 800] ------- [12:255 -1:255 27 0] [0x2 4 1 [0 0] [1 4]] (REQUEST)
r 1.017205645 _5_ MAC  --- 0 AODV 48 [0 ffffffff c 800] ------- [12:255 -1:255 27 0] [0x2 4 1 [0 0] [1 4]] (REQUEST)
r 1.017230324 _6_ RTR  --- 0 AODV 48 [0 ffffffff c 800] ------- [12:255 -1:255 27 0] [0x2 4 1 [0 0] [1 4]] (REQUEST)
r 1.017230403 _8_ RTR  --- 0 AODV 48 [0 ffffffff c 800] ------- [12:255 -1:255 27 0] [0x2 4 1 [0 0] [1 4]] (REQUEST)
r 1.017230461 _10_ RTR  --- 0 AODV 48 [0 ffffffff c 800] ------- [12:255 -1:255 27 0] [0x2 4 1 [0 0] [1 4]] (REQUEST)
r 1.017230558 _11_ RTR  --- 0 AODV 48 [0 ffffffff c 800] ------- [12:255 -1:255 27 0] [0x2 4 1 [0 0] [1 4]] (REQUEST)
r 1.017230631 _15_ RTR  --- 0 AODV 48 [0 ffffffff c 800] ------- [12:255 -1:255 27 0] [0x2 4 1 [0 0] [1 4]] (REQUEST)
r 1.017230645 _5_ RTR  --- 0 AODV 48 [0 ffffffff c 800] ------- [12:255 -1:255 27 0] [0x2 4 1 [0 0] [1 4]] (REQUEST)
s 1.017755324 _6_ MAC  --- 0 AODV 106 [0 ffffffff 6 800] ------- [6:255 -1:255 27 0] [0x2 4 1 [0 0] [1 4]] (REQUEST)
s 1.018009287 _29_ RTR  --- 0 AODV 48 [0 ffffffff 10 800] ------- [29:255 -1:255 27 0] [0x2 4 1 [0 0] [1 4]] (REQUEST)
r 1.018603657 _15_ MAC  --- 0 AODV 48 [0 ffffffff 6 800] ------- [6:255 -1:255 27 0] [0x2 4 1 [0 0] [1 4]] (REQUEST)
r 1.018603752 _5_ MAC  --- 0 AODV 48 [0 ffffffff 6 800] ------- [6:255 -1:255 27 0] [0x2 4 1 [0 0] [1 4]] (REQUEST)
r 1.018603761 _12_ MAC  --- 0 AODV 48 [0 ffffffff 6 800] ------- [6:255 -1:255 27 0] [0x2 4 1 [0 0] [1 4]] (REQUEST)
r 1.018603864 _10_ MAC  --- 0 AODV 48 [0 ffffffff 6 800] ------- [6:255 -1:255 27 0] [0x2 4 1 [0 0] [1 4]] (REQUEST)
r 1.018603951 _29_ MAC  --- 0 AODV 48 [0 ffffffff 6 800] ------- [6:255 -1:255 27 0] [0x2 4 1 [0 0] [1 4]] (REQUEST)
r 1.018604009 _16_ MAC  --- 0 AODV 48 [0 ffffffff 6 800] ------- [6:255 -1:255 27 0] [0x2 4 1 [0 0] [1 4]] (REQUEST)
r 1.018604117 _8_ MAC  --- 0 AODV 48 [0 ffffffff 6 800] ------- [6:255 -1:255 27 0] [0x2 4 1 [0 0] [1 4]] (REQUEST)
r 1.018628657 _15_ RTR  --- 0 AODV 48 [0 ffffffff 6 800] ------- [6:255 -1:255 27 0] [0x2 4 1 [0 0] [1 4]] (REQUEST)
r 1.018628752 _5_ RTR  --- 0 AODV 48 [0 ffffffff 6 800] ------- [6:255 -1:255 27 0] [0x2 4 1 [0 0] [1 4]] (REQUEST)
r 1.018628761 _12_ RTR  --- 0 AODV 48 [0 ffffffff 6 800] ------- [6:255 -1:255 27 0] [0x2 4 1 [0 0] [1 4]] (REQUEST)
r 1.018628864 _10_ RTR  --- 0 AODV 48 [0 ffffffff 6 800] ------- [6:255 -1:255 27 0] [0x2 4 1 [0 0] [1 4]] (REQUEST)
r 1.018628951 _29_ RTR  --- 0 AODV 48 [0 ffffffff 6 800] ------- [6:255 -1:255 27 0] [0x2 4 1 [0 0] [1 4]] (REQUEST)
r 1.018629009 _16_ RTR  --- 0 AODV 48 [0 ffffffff 6 800] ------- [6:255 -1:255 27 0] [0x2 4 1 [0 0] [1 4]] (REQUEST)
r 1.018629117 _8_ RTR  --- 0 AODV 48 [0 ffffffff 6 800] ------- [6:255 -1:255 27 0] [0x2 4 1 [0 0] [1 4]] (REQUEST)
s 1.019133951 _29_ MAC  --- 0 AODV 106 [0 ffffffff 1d 800] ------- [29:255 -1:255 27 0] [0x2 4 1 [0 0] [1 4]] (REQUEST)
s 1.019800495 _11_ RTR  --- 0 AODV 48 [0 ffffffff c 800] ------- [11:255 -1:255 26 0] [0x2 5 1 [0 0] [1 4]] (REQUEST)
r 1.019982244 _15_ MAC  --- 0 AODV 48 [0 ffffffff 1d 800] ------- [29:255 -1:255 27 0] [0x2 4 1 [0 0] [1 4]] (REQUEST)
r 1.019982547 _16_ MAC  --- 0 AODV 48 [0 ffffffff 1d 800] ------- [29:255 -1:255 27 0] [0x2 4 1 [0 0] [1 4]] (REQUEST)
r 1.019982577 _6_ MAC  --- 0 AODV 48 [0 ffffffff 1d 800] ------- [29:255 -1:255 27 0] [0x2 4 1 [0 0] [1 4]] (REQUEST)
r 1.019982631 _30_ MAC  --- 0 AODV 48 [0 ffffffff 1d 800] ------- [29:255 -1:255 27 0] [0x2 4 1 [0 0] [1 4]] (REQUEST)
r 1.019982687 _10_ MAC  --- 0 AODV 48 [0 ffffffff 1d 800] ------- [29:255 -1:255 27 0] [0x2 4 1 [0 0] [1 4]] (REQUEST)
r 1.019982701 _5_ MAC  --- 0 AODV 48 [0 ffffffff 1d 800] ------- [29:255 -1:255 27 0] [0x2 4 1 [0 0] [1 4]] (REQUEST)
r 1.020007244 _15_ RTR  --- 0 AODV 48 [0 ffffffff 1d 800] ------- [29:255 -1:255 27 0] [0x2 4 1 [0 0] [1 4]] (REQUEST)
r 1.020007547 _16_ RTR  --- 0 AODV 48 [0 ffffffff 1d 800] ------- [29:255 -1:255 27 0] [0x2 4 1 [0 0] [1 4]] (REQUEST)
r 1.020007577 _6_ RTR  --- 0 AODV 48 [0 ffffffff 1d 800] ------- [29:255 -1:255 27 0] [0x2 4 1 [0 0] [1 4]] (REQUEST)
r 1.020007631 _30_ RTR  --- 0 AODV 48 [0 ffffffff 1d 800] ------- [29:255 -1:255 27 0] [0x2 4 1 [0 0] [1 4]] (REQUEST)
r 1.020007687 _10_ RTR  --- 0 AODV 48 [0 ffffffff 1d 800] ------- [29:255 -1:255 27 0] [0x2 4 1 [0 0] [1 4]] (REQUEST)
r 1.020007701 _5_ RTR  --- 0 AODV 48 [0 ffffffff 1d 800] ------- [29:255 -1:255 27 0] [0x2 4 1 [0 0] [1 4]] (REQUEST)
s 1.020617522 _11_ MAC  --- 0 AODV 106 [0 ffffffff b 800] ------- [11:255 -1:255 26 0] [0x2 5 1 [0 0] [1 4]] (REQUEST)
r 1.021465960 _8_ MAC  --- 0 AODV 48 [0 ffffffff b 800] ------- [11:255 -1:255 26 0] [0x2 5 1 [0 0] [1 4]] (REQUEST)
r 1.021466057 _9_ MAC  --- 0 AODV 48 [0 ffffffff b 800] ------- [11:255 -1:255 26 0] [0x2 5 1 [0 0] [1 4]] (REQUEST)
r 1.021466079 _7_ MAC  --- 0 AODV 48 [0 ffffffff b 800] ------- [11:255 -1:255 26 0] [0x2 5 1 [0 0] [1 4]] (REQUEST)
r 1.021466165 _13_ MAC  --- 0 AODV 48 [0 ffffffff b 800] ------- [11:255 -1:255 26 0] [0x2 5 1 [0 0] [1 4]] (REQUEST)
r 1.021466192 _12_ MAC  --- 0 AODV 48 [0 ffffffff b 800] ------- [11:255 -1:255 26 0] [0x2 5 1 [0 0] [1 4]] (REQUEST)
r 1.021490960 _8_ RTR  --- 0 AODV 48 [0 ffffffff b 800] ------- [11:255 -1:255 26 0] [0x2 5 1 [0 0] [1 4]] (REQUEST)
r 1.021491057 _9_ RTR  --- 0 AODV 48 [0 ffffffff b 800] ------- [11:255 -1:255 26 0] [0x2 5 1 [0 0] [1 4]] (REQUEST)
r 1.021491079 _7_ RTR  --- 0 AODV 48 [0 ffffffff b 800] ------- [11:255 -1:255 26 0] [0x2 5 1 [0 0] [1 4]] (REQUEST)
r 1.021491165 _13_ RTR  --- 0 AODV 48 [0 ffffffff b 800] ------- [11:255 -1:255 26 0] [0x2 5 1 [0 0] [1 4]] (REQUEST)
r 1.021491192 _12_ RTR  --- 0 AODV 48 [0 ffffffff b 800] ------- [11:255 -1:255 26 0] [0x2 5 1 [0 0] [1 4]] (REQUEST)
s 1.021766653 _7_ RTR  --- 0 AODV 48 [0 ffffffff b 800] ------- [7:255 -1:255 25 0] [0x2 6 1 [0 0] [1 4]] (REQUEST)
s 1.021841653 _7_ MAC  --- 0 AODV 106 [0 ffffffff 7 800] ------- [7:255 -1:255 25 0] [0x2 6 1 [0 0] [1 4]] (REQUEST)
s 1.021872489 _10_ RTR  --- 0 AODV 48 [0 ffffffff f 800] ------- [10:255 -1:255 26 0] [0x2 5 1 [0 0] [1 4]] (REQUEST)
r 1.022690061 _13_ MAC  --- 0 AODV 48 [0 ffffffff 7 800] ------- [7:255 -1:255 25 0] [0x2 6 1 [0 0] [1 4]] (REQUEST)
r 1.022690136 _28_ MAC  --- 0 AODV 48 [0 ffffffff 7 800] ------- [7:255 -1:255 25 0] [0x2 6 1 [0 0] [1 4]] (REQUEST)
r 1.022690137 _4_ MAC  --- 0 AODV 48 [0 ffffffff 7 800] ------- [7:255 -1:255 25 0] [0x2 6 1 [0 0] [1 4]] (REQUEST)
r 1.022690169 _9_ MAC  --- 0 AODV 48 [0 ffffffff 7 800] ------- [7:255 -1:255 25 0] [0x2 6 1 [0 0] [1 4]] (REQUEST)
r 1.022690210 _11_ MAC  --- 0 AODV 48 [0 ffffffff 7 800] ------- [7:255 -1:255 25 0] [0x2 6 1 [0 0] [1 4]] (REQUEST)
r 1.022690315 _14_ MAC  --- 0 AODV 48 [0 ffffffff 7 800] ------- [7:255 -1:255 25 0] [0x2 6 1 [0 0] [1 4]] (REQUEST)
r 1.022690423 _8_ MAC  --- 0 AODV 48 [0 ffffffff 7 800] ------- [7:255 -1:255 25 0] [0x2 6 1 [0 0] [1 4]] (REQUEST)
r 1.022715061 _13_ RTR  --- 0 AODV 48 [0 ffffffff 7 800] ------- [7:255 -1:255 25 0] [0x2 6 1 [0 0] [1 4]] (REQUEST)
r 1.022715136 _28_ RTR  --- 0 AODV 48 [0 ffffffff 7 800] ------- [7:255 -1:255 25 0] [0x2 6 1 [0 0] [1 4]] (REQUEST)
r 1.022715137 _4_ RTR  --- 0 AODV 48 [0 ffffffff 7 800] ------- [7:255 -1:255 25 0] [0x2 6 1 [0 0] [1 4]] (REQUEST)
r 1.022715169 _9_ RTR  --- 0 AODV 48 [0 ffffffff 7 800] ------- [7:255 -1:255 25 0] [0x2 6 1 [0 0] [1 4]] (REQUEST)
r 1.022715210 _11_ RTR  --- 0 AODV 48 [0 ffffffff 7 800] ------- [7:255 -1:255 25 0] [0x2 6 1 [0 0] [1 4]] (REQUEST)
r 1.022715315 _14_ RTR  --- 0 AODV 48 [0 ffffffff 7 800] ------- [7:255 -1:255 25 0] [0x2 6 1 [0 0] [1 4]] (REQUEST)
r 1.022715423 _8_ RTR  --- 0 AODV 48 [0 ffffffff 7 800] ------- [7:255 -1:255 25 0] [0x2 6 1 [0 0] [1 4]] (REQUEST)
s 1.023344852 _10_ MAC  --- 0 AODV 106 [0 ffffffff a 800] ------- [10:255 -1:255 26 0] [0x2 5 1 [0 0] [1 4]] (REQUEST)
s 1.023916642 _8_ RTR  --- 0 AODV 48 [0 ffffffff c 800] ------- [8:255 -1:255 26 0] [0x2 5 1 [0 0] [1 4]] (REQUEST)
r 1.024193311 _8_ MAC  --- 0 AODV 48 [0 ffffffff a 800] ------- [10:255 -1:255 26 0] [0x2 5 1 [0 0] [1 4]] (REQUEST)
r 1.024193392 _6_ MAC  --- 0 AODV 48 [0 ffffffff a 800] ------- [10:255 -1:255 26 0] [0x2 5 1 [0 0] [1 4]] (REQUEST)
r 1.024193426 _12_ MAC  --- 0 AODV 48 [0 ffffffff a 800] ------- [10:255 -1:255 26 0] [0x2 5 1 [0 0] [1 4]] (REQUEST)
r 1.024193427 _15_ MAC  --- 0 AODV 48 [0 ffffffff a 800] ------- [10:255 -1:255 26 0] [0x2 5 1 [0 0] [1 4]] (REQUEST)
r 1.024193570 _9_ MAC  --- 0 AODV 48 [0 ffffffff a 800] ------- [10:255 -1:255 26 0] [0x2 5 1 [0 0] [1 4]] (REQUEST)
r 1.024193588 _29_ MAC  --- 0 AODV 48 [0 ffffffff a 800] ------- [10:255 -1:255 26 0] [0x2 5 1 [0 0] [1 4]] (REQUEST)
r 1.024218311 _8_ RTR  --- 0 AODV 48 [0 ffffffff a 800] ------- [10:255 -1:255 26 0] [0x2 5 1 [0 0] [1 4]] (REQUEST)
r 1.024218392 _6_ RTR  --- 0 AODV 48 [0 ffffffff a 800] ------- [10:255 -1:255 26 0] [0x2 5 1 [0 0] [1 4]] (REQUEST)
r 1.024218426 _12_ RTR  --- 0 AODV 48 [0 ffffffff a 800] ------- [10:255 -1:255 26 0] [0x2 5 1 [0 0] [1 4]] (REQUEST)
r 1.024218427 _15_ RTR  --- 0 AODV 48 [0 ffffffff a 800] ------- [10:255 -1:255 26 0] [0x2 5 1 [0 0] [1 4]] (REQUEST)
r 1.024218570 _9_ RTR  --- 0 AODV 48 [0 ffffffff a 800] ------- [10:255 -1:255 26 0] [0x2 5 1 [0 0] [1 4]] (REQUEST)
r 1.024218588 _29_ RTR  --- 0 AODV 48 [0 ffffffff a 800] ------- [10:255 -1:255 26 0] [0x2 5 1 [0 0] [1 4]] (REQUEST)
s 1.024483311 _8_ MAC  --- 0 AODV 106 [0 ffffffff 8 800] ------- [8:255 -1:255 26 0] [0x2 5 1 [0 0] [1 4]] (REQUEST)
s 1.024764335 _13_ RTR  --- 0 AODV 48 [0 ffffffff b 800] ------- [13:255 -1:255 25 0] [0x2 6 1 [0 0] [1 4]] (REQUEST)
s 1.024782477 _4_ RTR  --- 0 AODV 48 [0 ffffffff 7 800] ------- [4:255 -1:255 24 0] [0x2 7 1 [0 0] [1 4]] (REQUEST)
r 1.025331690 _9_ MAC  --- 0 AODV 48 [0 ffffffff 8 800] ------- [8:255 -1:255 26 0] [0x2 5 1 [0 0] [1 4]] (REQUEST)
r 1.025331749 _11_ MAC  --- 0 AODV 48 [0 ffffffff 8 800] ------- [8:255 -1:255 26 0] [0x2 5 1 [0 0] [1 4]] (REQUEST)
r 1.025331770 _10_ MAC  --- 0 AODV 48 [0 ffffffff 8 800] ------- [8:255 -1:255 26 0] [0x2 5 1 [0 0] [1 4]] (REQUEST)
r 1.025331827 _12_ MAC  --- 0 AODV 48 [0 ffffffff 8 800] ------- [8:255 -1:255 26 0] [0x2 5 1 [0 0] [1 4]] (REQUEST)
r 1.025332081 _7_ MAC  --- 0 AODV 48 [0 ffffffff 8 800] ------- [8:255 -1:255 26 0] [0x2 5 1 [0 0] [1 4]] (REQUEST)
r 1.025332104 _6_ MAC  --- 0 AODV 48 [0 ffffffff 8 800] ------- [8:255 -1:255 26 0] [0x2 5 1 [0 0] [1 4]] (REQUEST)
r 1.025356690 _9_ RTR  --- 0 AODV 48 [0 ffffffff 8 800] ------- [8:255 -1:255 26 0] [0x2 5 1 [0 0] [1 4]] (REQUEST)
r 1.025356749 _11_ RTR  --- 0 AODV 48 [0 ffffffff 8 800] ------- [8:255 -1:255 26 0] [0x2 5 1 [0 0] [1 4]] (REQUEST)
r 1.025356770 _10_ RTR  --- 0 AODV 48 [0 ffffffff 8 800] ------- [8:255 -1:255 26 0] [0x2 5 1 [0 0] [1 4]] (REQUEST)
r 1.025356827 _12_ RTR  --- 0 AODV 48 [0 ffffffff 8 800] ------- [8:255 -1:255 26 0] [0x2 5 1 [0 0] [1 4]] (REQUEST)