s 1.000000000 _1_ AGT  --- 0 cbr 1000 [0 0 0 0] ------- [1:0 0:0 32 0] [0] 0 0
r 1.000000000 _1_ RTR  --- 0 cbr 1000 [0 0 0 0] ------- [1:0 0:0 32 0] [0] 0 0
s 1.000000000 _1_ RTR  --- 0 AODV 48 [0 0 0 0] ------- [1:255 -1:255 30 0] [0x2 1 1 [0 0] [1 4]] (REQUEST)
s 1.000535000 _1_ MAC  --- 0 AODV 106 [0 ffffffff 1 800] ------- [1:255 -1:255 30 0] [0x2 1 1 [0 0] [1 4]] (REQUEST)
r 1.001383603 _2_ MAC  --- 0 AODV 48 [0 ffffffff 1 800] ------- [1:255 -1:255 30 0] [0x2 1 1 [0 0] [1 4]] (REQUEST)
r 1.001383691 _19_ MAC  --- 0 AODV 48 [0 ffffffff 1 800] ------- [1:255 -1:255 30 0] [0x2 1 1 [0 0] [1 4]] (REQUEST)
r 1.001383755 _38_ MAC  --- 0 AODV 48 [0 ffffffff 1 800] ------- [1:255 -1:255 30 0] [0x2 1 1 [0 0] [1 4]] (REQUEST)
r 1.001383781 _34_ MAC  --- 0 AODV 48 [0 ffffffff 1 800] ------- [1:255 -1:255 30 0] [0x2 1 1 [0 0] [1 4]] (REQUEST)
r 1.001383786 _33_ MAC  --- 0 AODV 48 [0 ffffffff 1 800] ------- [1:255 -1:255 30 0] [0x2 1 1 [0 0] [1 4]] (REQUEST)
r 1.001408603 _2_ RTR  --- 0 AODV 48 [0 ffffffff 1 800] ------- [1:255 -1:255 30 0] [0x2 1 1 [0 0] [1 4]] (REQUEST)
r 1.001408691 _19_ RTR  --- 0 AODV 48 [0 ffffffff 1 800] ------- [1:255 -1:255 30 0] [0x2 1 1 [0 0] [1 4]] (REQUEST)
r 1.001408755 _38_ RTR  --- 0 AODV 48 [0 ffffffff 1 800] ------- [1:255 -1:255 30 0] [0x2 1 1 [0 0] [1 4]] (REQUEST)
r 1.001408781 _34_ RTR  --- 0 AODV 48 [0 ffffffff 1 800] ------- [1:255 -1:255 30 0] [0x2 1 1 [0 0] [1 4]] (REQUEST)
r 1.001408786 _33_ RTR  --- 0 AODV 48 [0 ffffffff 1 800] ------- [1:255 -1:255 30 0] [0x2 1 1 [0 0] [1 4]] (REQUEST)
s 1.001550650 _2_ RTR  --- 0 AODV 48 [0 ffffffff 1 800] ------- [2:255 -1:255 29 0] [0x2 2 1 [0 0] [1 4]] (REQUEST)
s 1.001825650 _2_ MAC  --- 0 AODV 106 [0 ffffffff 2 800] ------- [2:255 -1:255 29 0] [0x2 2 1 [0 0] [1 4]] (REQUEST)
s 1.002289918 _19_ RTR  --- 0 AODV 48 [0 ffffffff 1 800] ------- [19:255 -1:255 29 0] [0x2 2 1 [0 0] [1 4]] (REQUEST)
r 1.002674111 _5_ MAC  --- 0 AODV 48 [0 ffffffff 2 800] ------- [2:255 -1:255 29 0] [0x2 2 1 [0 0] [1 4]] (REQUEST)
r 1.002674147 _16_ MAC  --- 0 AODV 48 [0 ffffffff 2 800] ------- [2:255 -1:255 29 0] [0x2 2 1 [0 0] [1 4]] (REQUEST)
r 1.002674253 _1_ MAC  --- 0 AODV 48 [0 ffffffff 2 800] ------- [2:255 -1:255 29 0] [0x2 2 1 [0 0] [1 4]] (REQUEST)
r 1.002674376 _17_ MAC  --- 0 AODV 48 [0 ffffffff 2 800] ------- [2:255 -1:255 29 0] [0x2 2 1 [0 0] [1 4]] (REQUEST)
r 1.002699111 _5_ RTR  --- 0 AODV 48 [0 ffffffff 2 800] ------- [2:255 -1:255 29 0] [0x2 2 1 [0 0] [1 4]] (REQUEST)
r 1.002699147 _16_ RTR  --- 0 AODV 48 [0 ffffffff 2 800] ------- [2:255 -1:255 29 0] [0x2 2 1 [0 0] [1 4]] (REQUEST)
r 1.002699253 _1_ RTR  --- 0 AODV 48 [0 ffffffff 2 800] ------- [2:255 -1:255 29 0] [0x2 2 1 [0 0] [1 4]] (REQUEST)
r 1.002699376 _17_ RTR  --- 0 AODV 48 [0 ffffffff 2 800] ------- [2:255 -1:255 29 0] [0x2 2 1 [0 0] [1 4]] (REQUEST)
s 1.003328546 _19_ MAC  --- 0 AODV 106 [0 ffffffff 13 800] ------- [19:255 -1:255 29 0] [0x2 2 1 [0 0] [1 4]] (REQUEST)
r 1.004176982 _18_ MAC  --- 0 AODV 48 [0 ffffffff 13 800] ------- [19:255 -1:255 29 0] [0x2 2 1 [0 0] [1 4]] (REQUEST)
r 1.004177090 _33_ MAC  --- 0 AODV 48 [0 ffffffff 13 800] ------- [19:255 -1:255 29 0] [0x2 2 1 [0 0] [1 4]] (REQUEST)
r 1.004177108 _17_ MAC  --- 0 AODV 48 [0 ffffffff 13 800] ------- [19:255 -1:255 29 0] [0x2 2 1 [0 0] [1 4]] (REQUEST)
r 1.004177129 _31_ MAC  --- 0 AODV 48 [0 ffffffff 13 800] ------- [19:255 -1:255 29 0] [0x2 2 1 [0 0] [1 4]] (REQUEST)
r 1.004177237 _1_ MAC  --- 0 AODV 48 [0 ffffffff 13 800] ------- [19:255 -1:255 29 0] [0x2 2 1 [0 0] [1 4]] (REQUEST)
r 1.004177301 _20_ MAC  --- 0 AODV 48 [0 ffffffff 13 800] ------- [19:255 -1:255 29 0] [0x2 2 1 [0 0] [1 4]] (REQUEST)
r 1.004201982 _18_ RTR  --- 0 AODV 48 [0 ffffffff 13 800] ------- [19:255 -1:255 29 0] [0x2 2 1 [0 0] [1 4]] (REQUEST)
r 1.004202090 _33_ RTR  --- 0 AODV 48 [0 ffffffff 13 800] ------- [19:255 -1:255 29 0] [0x2 2 1 [0 0] [1 4]] (REQUEST)
r 1.004202108 _17_ RTR  --- 0 AODV 48 [0 ffffffff 13 800] ------- [19:255 -1:255 29 0] [0x2 2 1 [0 0] [1 4]] (REQUEST)
r 1.004202129 _31_ RTR  --- 0 AODV 48 [0 ffffffff 13 800] ------- [19:255 -1:255 29 0] [0x2 2 1 [0 0] [1 4]] (REQUEST)
r 1.004202237 _1_ RTR  --- 0 AODV 48 [0 ffffffff 13 800] ------- [19:255 -1:255 29 0] [0x2 2 1 [0 0] [1 4]] (REQUEST)
r 1.004202301 _20_ RTR  --- 0 AODV 48 [0 ffffffff 13 800] ------- [19:255 -1:255 29 0] [0x2 2 1 [0 0] [1 4]] (REQUEST)
s 1.004340830 _17_ RTR  --- 0 AODV 48 [0 ffffffff 2 800] ------- [17:255 -1:255 28 0] [0x2 3 1 [0 0] [1 4]] (REQUEST)
s 1.004538404 _33_ RTR  --- 0 AODV 48 [0 ffffffff 1 800] ------- [33:255 -1:255 29 0] [0x2 2 1 [0 0] [1 4]] (REQUEST)
s 1.004575830 _17_ MAC  --- 0 AODV 106 [0 ffffffff 11 800] ------- [17:255 -1:255 28 0] [0x2 3 1 [0 0] [1 4]] (REQUEST)
s 1.005340212 _31_ RTR  --- 0 AODV 48 [0 ffffffff 13 800] ------- [31:255 -1:255 28 0] [0x2 3 1 [0 0] [1 4]] (REQUEST)
r 1.005424310 _21_ MAC  --- 0 AODV 48 [0 ffffffff 11 800] ------- [17:255 -1:255 28 0] [0x2 3 1 [0 0] [1 4]] (REQUEST)
r 1.005424354 _18_ MAC  --- 0 AODV 48 [0 ffffffff 11 800] ------- [17:255 -1:255 28 0] [0x2 3 1 [0 0] [1 4]] (REQUEST)
r 1.005424393 _19_ MAC  --- 0 AODV 48 [0 ffffffff 11 800] ------- [17:255 -1:255 28 0] [0x2 3 1 [0 0] [1 4]] (REQUEST)
r 1.005424414 _20_ MAC  --- 0 AODV 48 [0 ffffffff 11 800] ------- [17:255 -1:255 28 0] [0x2 3 1 [0 0] [1 4]] (REQUEST)
r 1.005424511 _30_ MAC  --- 0 AODV 48 [0 ffffffff 11 800] ------- [17:255 -1:255 28 0] [0x2 3 1 [0 0] [1 4]] (REQUEST)
r 1.005424522 _16_ MAC  --- 0 AODV 48 [0 ffffffff 11 800] ------- [17:255 -1:255 28 0] [0x2 3 1 [0 0] [1 4]] (REQUEST)
r 1.005424557 _2_ MAC  --- 0 AODV 48 [0 ffffffff 11 800] ------- [17:255 -1:255 28 0] [0x2 3 1 [0 0] [1 4]] (REQUEST)
r 1.005449310 _21_ RTR  --- 0 AODV 48 [0 ffffffff 11 800] ------- [17:255 -1:255 28 0] [0x2 3 1 [0 0] [1 4]] (REQUEST)
r 1.005449354 _18_ RTR  --- 0 AODV 48 [0 ffffffff 11 800] ------- [17:255 -1:255 28 0] [0x2 3 1 [0 0] [1 4]] (REQUEST)
r 1.005449393 _19_ RTR  --- 0 AODV 48 [0 ffffffff 11 800] ------- [17:255 -1:255 28 0] [0x2 3 1 [0 0] [1 4]] (REQUEST)
r 1.005449414 _20_ RTR  --- 0 AODV 48 [0 ffffffff 11 800] ------- [17:255 -1:255 28 0] [0x2 3 1 [0 0] [1 4]] (REQUEST)
r 1.005449511 _30_ RTR  --- 0 AODV 48 [0 ffffffff 11 800] ------- [17:255 -1:255 28 0] [0x2 3 1 [0 0] [1 4]] (REQUEST)
r 1.005449522 _16_ RTR  --- 0 AODV 48 [0 ffffffff 11 800] ------- [17:255 -1:255 28 0] [0x2 3 1 [0 0] [1 4]] (REQUEST)
r 1.005449557 _2_ RTR  --- 0 AODV 48 [0 ffffffff 11 800] ------- [17:255 -1:255 28 0] [0x2 3 1 [0 0] [1 4]] (REQUEST)
s 1.005789901 _5_ RTR  --- 0 AODV 48 [0 ffffffff 2 800] ------- [5:255 -1:255 28 0] [0x2 3 1 [0 0] [1 4]] (REQUEST)
s 1.005820489 _38_ RTR  --- 0 AODV 48 [0 ffffffff 1 800] ------- [38:255 -1:255 29 0] [0x2 2 1 [0 0] [1 4]] (REQUEST)
s 1.005884901 _5_ MAC  --- 0 AODV 106 [0 ffffffff 5 800] ------- [5:255 -1:255 28 0] [0x2 3 1 [0 0] [1 4]] (REQUEST)
s 1.006178938 _31_ MAC  --- 0 AODV 106 [0 ffffffff 1f 800] ------- [31:255 -1:255 28 0] [0x2 3 1 [0 0] [1 4]] (REQUEST)
r 1.006733315 _16_ MAC  --- 0 AODV 48 [0 ffffffff 5 800] ------- [5:255 -1:255 28 0] [0x2 3 1 [0 0] [1 4]] (REQUEST)
r 1.006733329 _6_ MAC  --- 0 AODV 48 [0 ffffffff 5 800] ------- [5:255 -1:255 28 0] [0x2 3 1 [0 0] [1 4]] (REQUEST)
r 1.006733362 _2_ MAC  --- 0 AODV 48 [0 ffffffff 5 800] ------- [5:255 -1:255 28 0] [0x2 3 1 [0 0] [1 4]] (REQUEST)
r 1.006733435 _15_ MAC  --- 0 AODV 48 [0 ffffffff 5 800] ------- [5:255 -1:255 28 0] [0x2 3 1 [0 0] [1 4]] (REQUEST)
r 1.006733652 _29_ MAC  --- 0 AODV 48 [0 ffffffff 5 800] ------- [5:255 -1:255 28 0] [0x2 3 1 [0 0] [1 4]] (REQUEST)
r 1.006733658 _12_ MAC  --- 0 AODV 48 [0 ffffffff 5 800] ------- [5:255 -1:255 28 0] [0x2 3 1 [0 0] [1 4]] (REQUEST)
r 1.006758315 _16_ RTR  --- 0 AODV 48 [0 ffffffff 5 800] ------- [5:255 -1:255 28 0] [0x2 3 1 [0 0] [1 4]] (REQUEST)
r 1.006758329 _6_ RTR  --- 0 AODV 48 [0 ffffffff 5 800] ------- [5:255 -1:255 28 0] [0x2 3 1 [0 0] [1 4]] (REQUEST)
r 1.006758362 _2_ RTR  --- 0 AODV 48 [0 ffffffff 5 800] ------- [5:255 -1:255 28 0] [0x2 3 1 [0 0] [1 4]] (REQUEST)
r 1.006758435 _15_ RTR  --- 0 AODV 48 [0 ffffffff 5 800] ------- [5:255 -1:255 28 0] [0x2 3 1 [0 0] [1 4]] (REQUEST)
r 1.006758652 _29_ RTR  --- 0 AODV 48 [0 ffffffff 5 800] ------- [5:255 -1:255 28 0] [0x2 3 1 [0 0] [1 4]] (REQUEST)
r 1.006758658 _12_ RTR  --- 0 AODV 48 [0 ffffffff 5 800] ------- [5:255 -1:255 28 0] [0x2 3 1 [0 0] [1 4]] (REQUEST)
D 1.007027281 _33_ MAC  COL 0 AODV 106 [0 ffffffff 1f 800] ------- [31:255 -1:255 28 0] [0x2 3 1 [0 0] [1 4]] (REQUEST)
D 1.007027522 _19_ MAC  COL 0 AODV 106 [0 ffffffff 1f 800] ------- [31:255 -1:255 28 0] [0x2 3 1 [0 0] [1 4]] (REQUEST)
D 1.007027659 _18_ MAC  COL 0 AODV 106 [0 ffffffff 1f 800] ------- [31:255 -1:255 28 0] [0x2 3 1 [0 0] [1 4]] (REQUEST)
s 1.007682676 _38_ MAC  --- 0 AODV 106 [0 ffffffff 26 800] ------- [38:255 -1:255 29 0] [0x2 2 1 [0 0] [1 4]] (REQUEST)
s 1.008030391 _30_ RTR  --- 0 AODV 48 [0 ffffffff 11 800] ------- [30:255 -1:255 27 0] [0x2 4 1 [0 0] [1 4]] (REQUEST)
s 1.008145391 _30_ MAC  --- 0 AODV 106 [0 ffffffff 1e 800] ------- [30:255 -1:255 27 0] [0x2 4 1 [0 0] [1 4]] (REQUEST)
r 1.008530944 _34_ MAC  --- 0 AODV 48 [0 ffffffff 26 800] ------- [38:255 -1:255 29 0] [0x2 2 1 [0 0] [1 4]] (REQUEST)
r 1.008531431 _1_ MAC  --- 0 AODV 48 [0 ffffffff 26 800] ------- [38:255 -1:255 29 0] [0x2 2 1 [0 0] [1 4]] (REQUEST)
r 1.008531479 _39_ MAC  --- 0 AODV 48 [0 ffffffff 26 800] ------- [38:255 -1:255 29 0] [0x2 2 1 [0 0] [1 4]] (REQUEST)
r 1.008555944 _34_ RTR  --- 0 AODV 48 [0 ffffffff 26 800] ------- [38:255 -1:255 29 0] [0x2 2 1 [0 0] [1 4]] (REQUEST)
r 1.008556431 _1_ RTR  --- 0 AODV 48 [0 ffffffff 26 800] ------- [38:255 -1:255 29 0] [0x2 2 1 [0 0] [1 4]] (REQUEST)
r 1.008556479 _39_ RTR  --- 0 AODV 48 [0 ffffffff 26 800] ------- [38:255 -1:255 29 0] [0x2 2 1 [0 0] [1 4]] (REQUEST)
s 1.008930253 _12_ RTR  --- 0 AODV 48 [0 ffffffff 5 800] ------- [12:255 -1:255 27 0] [0x2 4 1 [0 0] [1 4]] (REQUEST)
s 1.008936720 _21_ RTR  --- 0 AODV 48 [0 ffffffff 11 800] ------- [21:255 -1:255 27 0] [0x2 4 1 [0 0] [1 4]] (REQUEST)
r 1.008993919 _21_ MAC  --- 0 AODV 48 [0 ffffffff 1e 800] ------- [30:255 -1:255 27 0] [0x2 4 1 [0 0] [1 4]] (REQUEST)
D 1.008993990 _16_ MAC  COL 0 AODV 106 [0 ffffffff 1e 800] ------- [30:255 -1:255 27 0] [0x2 4 1 [0 0] [1 4]] (REQUEST)
r 1.008994071 _29_ MAC  --- 0 AODV 48 [0 ffffffff 1e 800] ------- [30:255 -1:255 27 0] [0x2 4 1 [0 0] [1 4]] (REQUEST)
D 1.008994072 _17_ MAC  COL 0 AODV 106 [0 ffffffff 1e 800] ------- [30:255 -1:255 27 0] [0x2 4 1 [0 0] [1 4]] (REQUEST)
r 1.009018919 _21_ RTR  --- 0 AODV 48 [0 ffffffff 1e 800] ------- [30:255 -1:255 27 0] [0x2 4 1 [0 0] [1 4]] (REQUEST)
r 1.009019071 _29_ RTR  --- 0 AODV 48 [0 ffffffff 1e 800] ------- [30:255 -1:255 27 0] [0x2 4 1 [0 0] [1 4]] (REQUEST)
s 1.009123919 _21_ MAC  --- 0 AODV 106 [0 ffffffff 15 800] ------- [21:255 -1:255 27 0] [0x2 4 1 [0 0] [1 4]] (REQUEST)
s 1.009400336 _34_ RTR  --- 0 AODV 48 [0 ffffffff 1 800] ------- [34:255 -1:255 29 0] [0x2 2 1 [0 0] [1 4]] (REQUEST)
s 1.009548979 _12_ MAC  --- 0 AODV 106 [0 ffffffff c 800] ------- [12:255 -1:255 27 0] [0x2 4 1 [0 0] [1 4]] (REQUEST)
r 1.009972354 _20_ MAC  --- 0 AODV 48 [0 ffffffff 15 800] ------- [21:255 -1:255 27 0] [0x2 4 1 [0 0] [1 4]] (REQUEST)
r 1.009972399 _17_ MAC  --- 0 AODV 48 [0 ffffffff 15 800] ------- [21:255 -1:255 27 0] [0x2 4 1 [0 0] [1 4]] (REQUEST)
r 1.009972448 _30_ MAC  --- 0 AODV 48 [0 ffffffff 15 800] ------- [21:255 -1:255 27 0] [0x2 4 1 [0 0] [1 4]] (REQUEST)
r 1.009972581 _18_ MAC  --- 0 AODV 48 [0 ffffffff 15 800] ------- [21:255 -1:255 27 0] [0x2 4 1 [0 0] [1 4]] (REQUEST)
r 1.009997354 _20_ RTR  --- 0 AODV 48 [0 ffffffff 15 800] ------- [21:255 -1:255 27 0] [0x2 4 1 [0 0] [1 4]] (REQUEST)
r 1.009997399 _17_ RTR  --- 0 AODV 48 [0 ffffffff 15 800] ------- [21:255 -1:255 27 0] [0x2 4 1 [0 0] [1 4]] (REQUEST)
r 1.009997448 _30_ RTR  --- 0 AODV 48 [0 ffffffff 15 800] ------- [21:255 -1:255 27 0] [0x2 4 1 [0 0] [1 4]] (REQUEST)
r 1.009997581 _18_ RTR  --- 0 AODV 48 [0 ffffffff 15 800] ------- [21:255 -1:255 27 0] [0x2 4 1 [0 0] [1 4]] (REQUEST)
D 1.010397416 _6_ MAC  COL 0 AODV 106 [0 ffffffff c 800] ------- [12:255 -1:255 27 0] [0x2 4 1 [0 0] [1 4]] (REQUEST)
r 1.010397494 _8_ MAC  --- 0 AODV 48 [0 ffffffff c 800] ------- [12:255 -1:255 27 0] [0x2 4 1 [0 0] [1 4]] (REQUEST)
r 1.010397552 _10_ MAC  --- 0 AODV 48 [0 ffffffff c 800] ------- [12:255 -1:255 27 0] [0x2 4 1 [0 0] [1 4]] (REQUEST)
r 1.010397649 _11_ MAC  --- 0 AODV 48 [0 ffffffff c 800] ------- [12:255 -1:255 27 0] [0x2 4 1 [0 0] [1 4]] (REQUEST)
D 1.010397722 _15_ MAC  COL 0 AODV 106 [0 ffffffff c 800] ------- [12:255 -1:255 27 0] [0x2 4 1 [0 0] [1 4]] (REQUEST)
D 1.010397736 _5_ MAC  COL 0 AODV 106 [0 ffffffff c 800] ------- [12:255 -1:255 27 0] [0x2 4 1 [0 0] [1 4]] (REQUEST)
r 1.010422494 _8_ RTR  --- 0 AODV 48 [0 ffffffff c 800] ------- [12:255 -1:255 27 0] [0x2 4 1 [0 0] [1 4]] (REQUEST)
r 1.010422552 _10_ RTR  --- 0 AODV 48 [0 ffffffff c 800] ------- [12:255 -1:255 27 0] [0x2 4 1 [0 0] [1 4]] (REQUEST)
r 1.010422649 _11_ RTR  --- 0 AODV 48 [0 ffffffff c 800] ------- [12:255 -1:255 27 0] [0x2 4 1 [0 0] [1 4]] (REQUEST)
s 1.010587391 _33_ MAC  --- 0 AODV 106 [0 ffffffff 21 800] ------- [33:255 -1:255 29 0] [0x2 2 1 [0 0] [1 4]] (REQUEST)
s 1.010602658 _18_ RTR  --- 0 AODV 48 [0 ffffffff 13 800] ------- [18:255 -1:255 28 0] [0x2 3 1 [0 0] [1 4]] (REQUEST)
s 1.011062383 _16_ RTR  --- 0 AODV 48 [0 ffffffff 2 800] ------- [16:255 -1:255 28 0] [0x2 3 1 [0 0] [1 4]] (REQUEST)
r 1.011435734 _31_ MAC  --- 0 AODV 48 [0 ffffffff 21 800] ------- [33:255 -1:255 29 0] [0x2 2 1 [0 0] [1 4]] (REQUEST)
r 1.011435935 _19_ MAC  --- 0 AODV 48 [0 ffffffff 21 800] ------- [33:255 -1:255 29 0] [0x2 2 1 [0 0] [1 4]] (REQUEST)
r 1.011436177 _1_ MAC  --- 0 AODV 48 [0 ffffffff 21 800] ------- [33:255 -1:255 29 0] [0x2 2 1 [0 0] [1 4]] (REQUEST)
r 1.011460734 _31_ RTR  --- 0 AODV 48 [0 ffffffff 21 800] ------- [33:255 -1:255 29 0] [0x2 2 1 [0 0] [1 4]] (REQUEST)
r 1.011460935 _19_ RTR  --- 0 AODV 48 [0 ffffffff 21 800] ------- [33:255 -1:255 29 0] [0x2 2 1 [0 0] [1 4]] (REQUEST)
r 1.011461177 _1_ RTR  --- 0 AODV 48 [0 ffffffff 21 800] ------- [33:255 -1:255 29 0] [0x2 2 1 [0 0] [1 4]] (REQUEST)
s 1.011542962 _11_ RTR  --- 0 AODV 48 [0 ffffffff c 800] ------- [11:255 -1:255 26 0] [0x2 5 1 [0 0] [1 4]] (REQUEST)
s 1.011910258 _18_ MAC  --- 0 AODV 106 [0 ffffffff 12 800] ------- [18:255 -1:255 28 0] [0x2 3 1 [0 0] [1 4]] (REQUEST)
s 1.011990913 _34_ MAC  --- 0 AODV 106 [0 ffffffff 22 800] ------- [34:255 -1:255 29 0] [0x2 2 1 [0 0] [1 4]] (REQUEST)
r 1.012758598 _20_ MAC  --- 0 AODV 48 [0 ffffffff 12 800] ------- [18:255 -1:255 28 0] [0x2 3 1 [0 0] [1 4]] (REQUEST)
r 1.012758694 _19_ MAC  --- 0 AODV 48 [0 ffffffff 12 800] ------- [18:255 -1:255 28 0] [0x2 3 1 [0 0] [1 4]] (REQUEST)
r 1.012758781 _17_ MAC  --- 0 AODV 48 [0 ffffffff 12 800] ------- [18:255 -1:255 28 0] [0x2 3 1 [0 0] [1 4]] (REQUEST)
r 1.012758919 _21_ MAC  --- 0 AODV 48 [0 ffffffff 12 800] ------- [18:255 -1:255 28 0] [0x2 3 1 [0 0] [1 4]] (REQUEST)
r 1.012758979 _31_ MAC  --- 0 AODV 48 [0 ffffffff 12 800] ------- [18:255 -1:255 28 0] [0x2 3 1 [0 0] [1 4]] (REQUEST)
r 1.012783598 _20_ RTR  --- 0 AODV 48 [0 ffffffff 12 800] ------- [18:255 -1:255 28 0] [0x2 3 1 [0 0] [1 4]] (REQUEST)
r 1.012783694 _19_ RTR  --- 0 AODV 48 [0 ffffffff 12 800] ------- [18:255 -1:255 28 0] [0x2 3 1 [0 0] [1 4]] (REQUEST)
r 1.012783781 _17_ RTR  --- 0 AODV 48 [0 ffffffff 12 800] ------- [18:255 -1:255 28 0] [0x2 3 1 [0 0] [1 4]] (REQUEST)
r 1.012783919 _21_ RTR  --- 0 AODV 48 [0 ffffffff 12 800] ------- [18:255 -1:255 28 0] [0x2 3 1 [0 0] [1 4]] (REQUEST)
r 1.012783979 _31_ RTR  --- 0 AODV 48 [0 ffffffff 12 800] ------- [18:255 -1:255 28 0] [0x2 3 1 [0 0] [1 4]] (REQUEST)
s 1.012799578 _20_ RTR  --- 0 AODV 48 [0 ffffffff 13 800] ------- [20:255 -1:255 28 0] [0x2 3 1 [0 0] [1 4]] (REQUEST)
r 1.012839181 _38_ MAC  --- 0 AODV 48 [0 ffffffff 22 800] ------- [34:255 -1:255 29 0] [0x2 2 1 [0 0] [1 4]] (REQUEST)
r 1.012839585 _39_ MAC  --- 0 AODV 48 [0 ffffffff 22 800] ------- [34:255 -1:255 29 0] [0x2 2 1 [0 0] [1 4]] (REQUEST)
D 1.012839694 _1_ MAC  COL 0 AODV 106 [0 ffffffff 22 800] ------- [34:255 -1:255 29 0] [0x2 2 1 [0 0] [1 4]] (REQUEST)
r 1.012839713 _35_ MAC  --- 0 AODV 48 [0 ffffffff 22 800] ------- [34:255 -1:255 29 0] [0x2 2 1 [0 0] [1 4]] (REQUEST)
r 1.012864181 _38_ RTR  --- 0 AODV 48 [0 ffffffff 22 800] ------- [34:255 -1:255 29 0] [0x2 2 1 [0 0] [1 4]] (REQUEST)
r 1.012864585 _39_ RTR  --- 0 AODV 48 [0 ffffffff 22 800] ------- [34:255 -1:255 29 0] [0x2 2 1 [0 0] [1 4]] (REQUEST)
r 1.012864713 _35_ RTR  --- 0 AODV 48 [0 ffffffff 22 800] ------- [34:255 -1:255 29 0] [0x2 2 1 [0 0] [1 4]] (REQUEST)
s 1.013054578 _20_ MAC  --- 0 AODV 106 [0 ffffffff 14 800] ------- [20:255 -1:255 28 0] [0x2 3 1 [0 0] [1 4]] (REQUEST)
s 1.013394705 _11_ MAC  --- 0 AODV 106 [0 ffffffff b 800] ------- [11:255 -1:255 26 0] [0x2 5 1 [0 0] [1 4]] (REQUEST)
s 1.013681397 _6_ RTR  --- 0 AODV 48 [0 ffffffff 5 800] ------- [6:255 -1:255 27 0] [0x2 4 1 [0 0] [1 4]] (REQUEST)
r 1.013902919 _18_ MAC  --- 0 AODV 48 [0 ffffffff 14 800] ------- [20:255 -1:255 28 0] [0x2 3 1 [0 0] [1 4]] (REQUEST)
r 1.013903013 _21_ MAC  --- 0 AODV 48 [0 ffffffff 14 800] ------- [20:255 -1:255 28 0] [0x2 3 1 [0 0] [1 4]] (REQUEST)
r 1.013903162 _17_ MAC  --- 0 AODV 48 [0 ffffffff 14 800] ------- [20:255 -1:255 28 0] [0x2 3 1 [0 0] [1 4]] (REQUEST)
r 1.013903334 _19_ MAC  --- 0 AODV 48 [0 ffffffff 14 800] ------- [20:255 -1:255 28 0] [0x2 3 1 [0 0] [1 4]] (REQUEST)
r 1.013927919 _18_ RTR  --- 0 AODV 48 [0 ffffffff 14 800] ------- [20:255 -1:255 28 0] [0x2 3 1 [0 0] [1 4]] (REQUEST)
r 1.013928013 _21_ RTR  --- 0 AODV 48 [0 ffffffff 14 800] ------- [20:255 -1:255 28 0] [0x2 3 1 [0 0] [1 4]] (REQUEST)
r 1.013928162 _17_ RTR  --- 0 AODV 48 [0 ffffffff 14 800] ------- [20:255 -1:255 28 0] [0x2 3 1 [0 0] [1 4]] (REQUEST)
r 1.013928334 _19_ RTR  --- 0 AODV 48 [0 ffffffff 14 800] ------- [20:255 -1:255 28 0] [0x2 3 1 [0 0] [1 4]] (REQUEST)
r 1.014243142 _8_ MAC  --- 0 AODV 48 [0 ffffffff b 800] ------- [11:255 -1:255 26 0] [0x2 5 1 [0 0] [1 4]] (REQUEST)
r 1.014243240 _9_ MAC  --- 0 AODV 48 [0 ffffffff b 800] ------- [11:255 -1:255 26 0] [0x2 5 1 [0 0] [1 4]] (REQUEST)
r 1.014243261 _7_ MAC  --- 0 AODV 48 [0 ffffffff b 800] ------- [11:255 -1:255 26 0] [0x2 5 1 [0 0] [1 4]] (REQUEST)
r 1.014243347 _13_ MAC  --- 0 AODV 48 [0 ffffffff b 800] ------- [11:255 -1:255 26 0] [0x2 5 1 [0 0] [1 4]] (REQUEST)
r 1.014243375 _12_ MAC  --- 0 AODV 48 [0 ffffffff b 800] ------- [11:255 -1:255 26 0] [0x2 5 1 [0 0] [1 4]] (REQUEST)
r 1.014268142 _8_ RTR  --- 0 AODV 48 [0 ffffffff b 800] ------- [11:255 -1:255 26 0] [0x2 5 1 [0 0] [1 4]] (REQUEST)
r 1.014268240 _9_ RTR  --- 0 AODV 48 [0 ffffffff b 800] ------- [11:255 -1:255 26 0] [0x2 5 1 [0 0] [1 4]] (REQUEST)
r 1.014268261 _7_ RTR  --- 0 AODV 48 [0 ffffffff b 800] ------- [11:255 -1:255 26 0] [0x2 5 1 [0 0] [1 4]] (REQUEST)
r 1.014268347 _13_ RTR  --- 0 AODV 48 [0 ffffffff b 800] ------- [11:255 -1:255 26 0] [0x2 5 1 [0 0] [1 4]] (REQUEST)
r 1.014268375 _12_ RTR  --- 0 AODV 48 [0 ffffffff b 800] ------- [11:255 -1:255 26 0] [0x2 5 1 [0 0] [1 4]] (REQUEST)
s 1.014543922 _13_ RTR  --- 0 AODV 48 [0 ffffffff b 800] ------- [13:255 -1:255 25 0] [0x2 6 1 [0 0] [1 4]] (REQUEST)
s 1.014657783 _6_ MAC  --- 0 AODV 106 [0 ffffffff 6 800] ------- [6:255 -1:255 27 0] [0x2 4 1 [0 0] [1 4]] (REQUEST)
s 1.015156904 _29_ RTR  --- 0 AODV 48 [0 ffffffff 5 800] ------- [29:255 -1:255 27 0] [0x2 4 1 [0 0] [1 4]] (REQUEST)
s 1.015379108 _15_ RTR  --- 0 AODV 48 [0 ffffffff 5 800] ------- [15:255 -1:255 27 0] [0x2 4 1 [0 0] [1 4]] (REQUEST)
r 1.015506115 _15_ MAC  --- 0 AODV 48 [0 ffffffff 6 800] ------- [6:255 -1:255 27 0] [0x2 4 1 [0 0] [1 4]] (REQUEST)
r 1.015506210 _5_ MAC  --- 0 AODV 48 [0 ffffffff 6 800] ------- [6:255 -1:255 27 0] [0x2 4 1 [0 0] [1 4]] (REQUEST)
r 1.015506219 _12_ MAC  --- 0 AODV 48 [0 ffffffff 6 800] ------- [6:255 -1:255 27 0] [0x2 4 1 [0 0] [1 4]] (REQUEST)
r 1.015506322 _10_ MAC  --- 0 AODV 48 [0 ffffffff 6 800] ------- [6:255 -1:255 27 0] [0x2 4 1 [0 0] [1 4]] (REQUEST)
r 1.015506409 _29_ MAC  --- 0 AODV 48 [0 ffffffff 6 800] ------- [6:255 -1:255 27 0] [0x2 4 1 [0 0] [1 4]] (REQUEST)
r 1.015506468 _16_ MAC  --- 0 AODV 48 [0 ffffffff 6 800] ------- [6:255 -1:255 27 0] [0x2 4 1 [0 0] [1 4]] (REQUEST)
r 1.015506575 _8_ MAC  --- 0 AODV 48 [0 ffffffff 6 800] ------- [6:255 -1:255 27 0] [0x2 4 1 [0 0] [1 4]] (REQUEST)
r 1.015531115 _15_ RTR  --- 0 AODV 48 [0 ffffffff 6 800] ------- [6:255 -1:255 27 0] [0x2 4 1 [0 0] [1 4]] (REQUEST)
r 1.015531210 _5_ RTR  --- 0 AODV 48 [0 ffffffff 6 800] ------- [6:255 -1:255 27 0] [0x2 4 1 [0 0] [1 4]] (REQUEST)
r 1.015531219 _12_ RTR  --- 0 AODV 48 [0 ffffffff 6 800] ------- [6:255 -1:255 27 0] [0x2 4 1 [0 0] [1 4]] (REQUEST)
r 1.015531322 _10_ RTR  --- 0 AODV 48 [0 ffffffff 6 800] ------- [6:255 -1:255 27 0] [0x2 4 1 [0 0] [1 4]] (REQUEST)
r 1.015531409 _29_ RTR  --- 0 AODV 48 [0 ffffffff 6 800] ------- [6:255 -1:255 27 0] [0x2 4 1 [0 0] [1 4]] (REQUEST)
r 1.015531468 _16_ RTR  --- 0 AODV 48 [0 ffffffff 6 800] ------- [6:255 -1:255 27 0] [0x2 4 1 [0 0] [1 4]] (REQUEST)
r 1.015531575 _8_ RTR  --- 0 AODV 48 [0 ffffffff 6 800] ------- [6:255 -1:255 27 0] [0x2 4 1 [0 0] [1 4]] (REQUEST)
s 1.015556409 _29_ MAC  --- 0 AODV 106 [0 ffffffff 1d 800] ------- [29:255 -1:255 27 0] [0x2 4 1 [0 0] [1 4]] (REQUEST)
s 1.016178798 _39_ RTR  --- 0 AODV 48 [0 ffffffff 26 800] ------- [39:255 -1:255 28 0] [0x2 3 1 [0 0] [1 4]] (REQUEST)
s 1.016181504 _13_ MAC  --- 0 AODV 106 [0 ffffffff d 800] ------- [13:255 -1:255 25 0] [0x2 6 1 [0 0] [1 4]] (REQUEST)
r 1.016404702 _15_ MAC  --- 0 AODV 48 [0 ffffffff 1d 800] ------- [29:255 -1:255 27 0] [0x2 4 1 [0 0] [1 4]] (REQUEST)
r 1.016405005 _16_ MAC  --- 0 AODV 48 [0 ffffffff 1d 800] ------- [29:255 -1:255 27 0] [0x2 4 1 [0 0] [1 4]] (REQUEST)
r 1.016405035 _6_ MAC  --- 0 AODV 48 [0 ffffffff 1d 800] ------- [29:255 -1:255 27 0] [0x2 4 1 [0 0] [1 4]] (REQUEST)
r 1.016405089 _30_ MAC  --- 0 AODV 48 [0 ffffffff 1d 800] ------- [29:255 -1:255 27 0] [0x2 4 1 [0 0] [1 4]] (REQUEST)
r 1.016405145 _10_ MAC  --- 0 AODV 48 [0 ffffffff 1d 800] ------- [29:255 -1:255 27 0] [0x2 4 1 [0 0] [1 4]] (REQUEST)
r 1.016405159 _5_ MAC  --- 0 AODV 48 [0 ffffffff 1d 800] ------- [29:255 -1:255 27 0] [0x2 4 1 [0 0] [1 4]] (REQUEST)
r 1.016429702 _15_ RTR  --- 0 AODV 48 [0 ffffffff 1d 800] ------- [29:255 -1:255 27 0] [0x2 4 1 [0 0] [1 4]] (REQUEST)
r 1.016430005 _16_ RTR  --- 0 AODV 48 [0 ffffffff 1d 800] ------- [29:255 -1:255 27 0] [0x2 4 1 [0 0] [1 4]] (REQUEST)
r 1.016430035 _6_ RTR  --- 0 AODV 48 [0 ffffffff 1d 800] ------- [29:255 -1:255 27 0] [0x2 4 1 [0 0] [1 4]] (REQUEST)
r 1.016430089 _30_ RTR  --- 0 AODV 48 [0 ffffffff 1d 800] ------- [29:255 -1:255 27 0] [0x2 4 1 [0 0] [1 4]] (REQUEST)
r 1.016430145 _10_ RTR  --- 0 AODV 48 [0 ffffffff 1d 800] ------- [29:255 -1:255 27 0] [0x2 4 1 [0 0] [1 4]] (REQUEST)
r 1.016430159 _5_ RTR  --- 0 AODV 48 [0 ffffffff 1d 800] ------- [29:255 -1:255 27 0] [0x2 4 1 [0 0] [1 4]] (REQUEST)
s 1.016515005 _16_ MAC  --- 0 AODV 106 [0 ffffffff 10 800] ------- [16:255 -1:255 28 0] [0x2 3 1 [0 0] [1 4]] (REQUEST)
r 1.017029774 _4_ MAC  --- 0 AODV 48 [0 ffffffff d 800] ------- [13:255 -1:255 25 0] [0x2 6 1 [0 0] [1 4]] (REQUEST)
r 1.017029911 _7_ MAC  --- 0 AODV 48 [0 ffffffff d 800] ------- [13:255 -1:255 25 0] [0x2 6 1 [0 0] [1 4]] (REQUEST)
r 1.017030107 _3_ MAC  --- 0 AODV 48 [0 ffffffff d 800] ------- [13:255 -1:255 25 0] [0x2 6 1 [0 0] [1 4]] (REQUEST)
D 1.017030146 _11_ MAC  COL 0 AODV 106 [0 ffffffff d 800] ------- [13:255 -1:255 25 0] [0x2 6 1 [0 0] [1 4]] (REQUEST)
r 1.017030193 _14_ MAC  --- 0 AODV 48 [0 ffffffff d 800] ------- [13:255 -1:255 25 0] [0x2 6 1 [0 0] [1 4]] (REQUEST)
r 1.017030215 _22_ MAC  --- 0 AODV 48 [0 ffffffff d 800] ------- [13:255 -1:255 25 0] [0x2 6 1 [0 0] [1 4]] (REQUEST)
r 1.017054774 _4_ RTR  --- 0 AODV 48 [0 ffffffff d 800] ------- [13:255 -1:255 25 0] [0x2 6 1 [0 0] [1 4]] (REQUEST)
r 1.017054911 _7_ RTR  --- 0 AODV 48 [0 ffffffff d 800] ------- [13:255 -1:255 25 0] [0x2 6 1 [0 0] [1 4]] (REQUEST)
r 1.017055107 _3_ RTR  --- 0 AODV 48 [0 ffffffff d 800] ------- [13:255 -1:255 25 0] [0x2 6 1 [0 0] [1 4]] (REQUEST)
r 1.017055193 _14_ RTR  --- 0 AODV 48 [0 ffffffff d 800] ------- [13:255 -1:255 25 0] [0x2 6 1 [0 0] [1 4]] (REQUEST)
r 1.017055215 _22_ RTR  --- 0 AODV 48 [0 ffffffff d 800] ------- [13:255 -1:255 25 0] [0x2 6 1 [0 0] [1 4]] (REQUEST)
r 1.017363419 _5_ MAC  --- 0 AODV 48 [0 ffffffff 10 800] ------- [16:255 -1:255 28 0] [0x2 3 1 [0 0] [1 4]] (REQUEST)
r 1.017363503 _2_ MAC  --- 0 AODV 48 [0 ffffffff 10 800] ------- [16:255 -1:255 28 0] [0x2 3 1 [0 0] [1 4]] (REQUEST)
r 1.017363560 _15_ MAC  --- 0 AODV 48 [0 ffffffff 10 800] ------- [16:255 -1:255 28 0] [0x2 3 1 [0 0] [1 4]] (REQUEST)
r 1.017363602 _29_ MAC  --- 0 AODV 48 [0 ffffffff 10 800] ------- [16:255 -1:255 28 0] [0x2 3 1 [0 0] [1 4]] (REQUEST)
r 1.017363605 _30_ MAC  --- 0 AODV 48 [0 ffffffff 10 800] ------- [16:255 -1:255 28 0] [0x2 3 1 [0 0] [1 4]] (REQUEST)
r 1.017363690 _6_ MAC  --- 0 AODV 48 [0 ffffffff 10 800] ------- [16:255 -1:255 28 0] [0x2 3 1 [0 0] [1 4]] (REQUEST)
r 1.017363697 _17_ MAC  --- 0 AODV 48 [0 ffffffff 10 800] ------- [16:255 -1:255 28 0] [0x2 3 1 [0 0] [1 4]] (REQUEST)
r 1.017388419 _5_ RTR  --- 0 AODV 48 [0 ffffffff 10 800] ------- [16:255 -1:255 28 0] [0x2 3 1 [0 0] [1 4]] (REQUEST)
r 1.017388503 _2_ RTR  --- 0 AODV 48 [0 ffffffff 10 800] ------- [16:255 -1:255 28 0] [0x2 3 1 [0 0] [1 4]] (REQUEST)
r 1.017388560 _15_ RTR  --- 0 AODV 48 [0 ffffffff 10 800] ------- [16:255 -1:255 28 0] [0x2 3 1 [0 0] [1 4]] (REQUEST)
r 1.017388602 _29_ RTR  --- 0 AODV 48 [0 ffffffff 10 800] ------- [16:255 -1:255 28 0] [0x2 3 1 [0 0] [1 4]] (REQUEST)
r 1.017388605 _30_ RTR  --- 0 AODV 48 [0 ffffffff 10 800] ------- [16:255 -1:255 28 0] [0x2 3 1 [0 0] [1 4]] (REQUEST)
r 1.017388690 _6_ RTR  --- 0 AODV 48 [0 ffffffff 10 800] ------- [16:255 -1:255 28 0] [0x2 3 1 [0 0] [1 4]] (REQUEST)
r 1.017388697 _17_ RTR  --- 0 AODV 48 [0 ffffffff 10 800] ------- [16:255 -1:255 28 0] [0x2 3 1 [0 0] [1 4]] (REQUEST)
s 1.017593560 _15_ MAC  --- 0 AODV 106 [0 ffffffff f 800] ------- [15:255 -1:255 27 0] [0x2 4 1 [0 0] [1 4]] (REQUEST)
s 1.017968762 _14_ RTR  --- 0 AODV 48 [0 ffffffff d 800] ------- [14:255 -1:255 24 0] [0x2 7 1 [0 0] [1 4]] (REQUEST)
s 1.018163762 _14_ MAC  --- 0 AODV 106 [0 ffffffff e 800] ------- [14:255 -1:255 24 0] [0x2 7 1 [0 0] [1 4]] (REQUEST)
r 1.018441854 _29_ MAC  --- 0 AODV 48 [0 ffffffff f 800] ------- [15:255 -1:255 27 0] [0x2 4 1 [0 0] [1 4]] (REQUEST)
r 1.018441893 _6_ MAC  --- 0 AODV 48 [0 ffffffff f 800] ------- [15:255 -1:255 27 0] [0x2 4 1 [0 0] [1 4]] (REQUEST)
r 1.018442094 _5_ MAC  --- 0 AODV 48 [0 ffffffff f 800] ------- [15:255 -1:255 27 0] [0x2 4 1 [0 0] [1 4]] (REQUEST)
r 1.018442115 _16_ MAC  --- 0 AODV 48 [0 ffffffff f 800] ------- [15:255 -1:255 27 0] [0x2 4 1 [0 0] [1 4]] (REQUEST)
r 1.018442135 _10_ MAC  --- 0 AODV 48 [0 ffffffff f 800] ------- [15:255 -1:255 27 0] [0x2 4 1 [0 0] [1 4]] (REQUEST)
r 1.018442303 _12_ MAC  --- 0 AODV 48 [0 ffffffff f 800] ------- [15:255 -1:255 27 0] [0x2 4 1 [0 0] [1 4]] (REQUEST)
r 1.018466854 _29_ RTR  --- 0 AODV 48 [0 ffffffff f 800] ------- [15:255 -1:255 27 0] [0x2 4 1 [0 0] [1 4]] (REQUEST)
r 1.018466893 _6_ RTR  --- 0 AODV 48 [0 ffffffff f 800] ------- [15:255 -1:255 27 0] [0x2 4 1 [0 0] [1 4]] (REQUEST)
r 1.018467094 _5_ RTR  --- 0 AODV 48 [0 ffffffff f 800] ------- [15:255 -1:255 27 0] [0x2 4 1 [0 0] [1 4]] (REQUEST)
r 1.018467115 _16_ RTR  --- 0 AODV 48 [0 ffffffff f 800] ------- [15:255 -1:255 27 0] [0x2 4 1 [0 0] [1 4]] (REQUEST)
r 1.018467135 _10_ RTR  --- 0 AODV 48 [0 ffffffff f 800] ------- [15:255 -1:255 27 0] [0x2 4 1 [0 0] [1 4]] (REQUEST)
r 1.018467303 _12_ RTR  --- 0 AODV 48 [0 ffffffff f 800] ------- [15:255 -1:255 27 0] [0x2 4 1 [0 0] [1 4]] (REQUEST)
s 1.018525134 _7_ RTR  --- 0 AODV 48 [0 ffffffff b 800] ------- [7:255 -1:255 25 0] [0x2 6 1 [0 0] [1 4]] (REQUEST)
s 1.018842053 _4_ RTR  --- 0 AODV 48 [0 ffffffff d 800] ------- [4:255 -1:255 24 0] [0x2 7 1 [0 0] [1 4]] (REQUEST)
s 1.018877347 _39_ MAC  --- 0 AODV 106 [0 ffffffff 27 800] ------- [39:255 -1:255 28 0] [0x2 3 1 [0 0] [1 4]] (REQUEST)
r 1.019012206 _4_ MAC  --- 0 AODV 48 [0 ffffffff e 800] ------- [14:255 -1:255 24 0] [0x2 7 1 [0 0] [1 4]] (REQUEST)
r 1.019012218 _27_ MAC  --- 0 AODV 48 [0 ffffffff e 800] ------- [14:255 -1:255 24 0] [0x2 7 1 [0 0] [1 4]] (REQUEST)
r 1.019012230 _22_ MAC  --- 0 AODV 48 [0 ffffffff e 800] ------- [14:255 -1:255 24 0] [0x2 7 1 [0 0] [1 4]] (REQUEST)
r 1.019012373 _3_ MAC  --- 0 AODV 48 [0 ffffffff e 800] ------- [14:255 -1:255 24 0] [0x2 7 1 [0 0] [1 4]] (REQUEST)
D 1.019012424 _7_ MAC  COL 0 AODV 106 [0 ffffffff e 800] ------- [14:255 -1:255 24 0] [0x2 7 1 [0 0] [1 4]] (REQUEST)
r 1.019012444 _28_ MAC  --- 0 AODV 48 [0 ffffffff e 800] ------- [14:255 -1:255 24 0] [0x2 7 1 [0 0] [1 4]] (REQUEST)
r 1.019012451 _13_ MAC  --- 0 AODV 48 [0 ffffffff e 800] ------- [14:255 -1:255 24 0] [0x2 7 1 [0 0] [1 4]] (REQUEST)
r 1.019012488 _23_ MAC  --- 0 AODV 48 [0 ffffffff e 800] ------- [14:255 -1:255 24 0] [0x2 7 1 [0 0] [1 4]] (REQUEST)
r 1.019037206 _4_ RTR  --- 0 AODV 48 [0 ffffffff e 800] ------- [14:255 -1:255 24 0] [0x2 7 1 [0 0] [1 4]] (REQUEST)
r 1.019037218 _27_ RTR  --- 0 AODV 48 [0 ffffffff e 800] ------- [14:255 -1:255 24 0] [0x2 7 1 [0 0] [1 4]] (REQUEST)
r 1.019037230 _22_ RTR  --- 0 AODV 48 [0 ffffffff e 800] ------- [14:255 -1:255 24 0] [0x2 7 1 [0 0] [1 4]] (REQUEST)
r 1.019037373 _3_ RTR  --- 0 AODV 48 [0 ffffffff e 800] ------- [14:255 -1:255 24 0] [0x2 7 1 [0 0] [1 4]] (REQUEST)
r 1.019037444 _28_ RTR  --- 0 AODV 48 [0 ffffffff e 800] ------- [14:255 -1:255 24 0] [0x2 7 1 [0 0] [1 4]] (REQUEST)
r 1.019037451 _13_ RTR  --- 0 AODV 48 [0 ffffffff e 800] ------- [14:255 -1:255 24 0] [0x2 7 1 [0 0] [1 4]] (REQUEST)