s 1.000000000 _1_ AGT  --- 0 cbr 1000 [0 0 0 0] ------- [1:0 0:0 32 0] [0] 0 0
r 1.000000000 _1_ RTR  --- 0 cbr 1000 [0 0 0 0] ------- [1:0 0:0 32 0] [0] 0 0
s 1.000000000 _1_ RTR  --- 0 AODV 48 [0 0 0 0] ------- [1:255 -1:255 30 0] [0x2 1 1 [0 0] [1 4]] (REQUEST)
s 1.000535000 _1_ MAC  --- 0 AODV 106 [0 ffffffff 1 800] ------- [1:255 -1:255 30 0] [0x2 1 1 [0 0] [1 4]] (REQUEST)
r 1.001383603 _2_ MAC  --- 0 AODV 48 [0 ffffffff 1 800] ------- [1:255 -1:255 30 0] [0x2 1 1 [0 0] [1 4]] (REQUEST)
r 1.001383691 _19_ MAC  --- 0 AODV 48 [0 ffffffff 1 800] ------- [1:255 -1:255 30 0] [0x2 1 1 [0 0] [1 4]] (REQUEST)
r 1.001383755 _38_ MAC  --- 0 AODV 48 [0 ffffffff 1 800] ------- [1:255 -1:255 30 0] [0x2 1 1 [0 0] [1 4]] (REQUEST)
r 1.001383781 _34_ MAC  --- 0 AODV 48 [0 ffffffff 1 800] ------- [1:255 -1:255 30 0] [0x2 1 1 [0 0] [1 4]] (REQUEST)
r 1.001383783 _43_ MAC  --- 0 AODV 48 [0 ffffffff 1 800] ------- [1:255 -1:255 30 0] [0x2 1 1 [0 0] [1 4]] (REQUEST)
r 1.001383786 _33_ MAC  --- 0 AODV 48 [0 ffffffff 1 800] ------- [1:255 -1:255 30 0] [0x2 1 1 [0 0] [1 4]] (REQUEST)
r 1.001408603 _2_ RTR  --- 0 AODV 48 [0 ffffffff 1 800] ------- [1:255 -1:255 30 0] [0x2 1 1 [0 0] [1 4]] (REQUEST)
r 1.001408691 _19_ RTR  --- 0 AODV 48 [0 ffffffff 1 800] ------- [1:255 -1:255 30 0] [0x2 1 1 [0 0] [1 4]] (REQUEST)
r 1.001408755 _38_ RTR  --- 0 AODV 48 [0 ffffffff 1 800] ------- [1:255 -1:255 30 0] [0x2 1 1 [0 0] [1 4]] (REQUEST)
r 1.001408781 _34_ RTR  --- 0 AODV 48 [0 ffffffff 1 800] ------- [1:255 -1:255 30 0] [0x2 1 1 [0 0] [1 4]] (REQUEST)
r 1.001408783 _43_ RTR  --- 0 AODV 48 [0 ffffffff 1 800] ------- [1:255 -1:255 30 0] [0x2 1 1 [0 0] [1 4]] (REQUEST)
r 1.001408786 _33_ RTR  --- 0 AODV 48 [0 ffffffff 1 800] ------- [1:255 -1:255 30 0] [0x2 1 1 [0 0] [1 4]] (REQUEST)
s 1.001550650 _2_ RTR  --- 0 AODV 48 [0 ffffffff 1 800] ------- [2:255 -1:255 29 0] [0x2 2 1 [0 0] [1 4]] (REQUEST)
s 1.001865650 _2_ MAC  --- 0 AODV 106 [0 ffffffff 2 800] ------- [2:255 -1:255 29 0] [0x2 2 1 [0 0] [1 4]] (REQUEST)
s 1.002289918 _19_ RTR  --- 0 AODV 48 [0 ffffffff 1 800] ------- [19:255 -1:255 29 0] [0x2 2 1 [0 0] [1 4]] (REQUEST)
r 1.002714111 _5_ MAC  --- 0 AODV 48 [0 ffffffff 2 800] ------- [2:255 -1:255 29 0] [0x2 2 1 [0 0] [1 4]] (REQUEST)
r 1.002714147 _16_ MAC  --- 0 AODV 48 [0 ffffffff 2 800] ------- [2:255 -1:255 29 0] [0x2 2 1 [0 0] [1 4]] (REQUEST)
r 1.002714253 _1_ MAC  --- 0 AODV 48 [0 ffffffff 2 800] ------- [2:255 -1:255 29 0] [0x2 2 1 [0 0] [1 4]] (REQUEST)
r 1.002714376 _17_ MAC  --- 0 AODV 48 [0 ffffffff 2 800] ------- [2:255 -1:255 29 0] [0x2 2 1 [0 0] [1 4]] (REQUEST)
r 1.002739111 _5_ RTR  --- 0 AODV 48 [0 ffffffff 2 800] ------- [2:255 -1:255 29 0] [0x2 2 1 [0 0] [1 4]] (REQUEST)
r 1.002739147 _16_ RTR  --- 0 AODV 48 [0 ffffffff 2 800] ------- [2:255 -1:255 29 0] [0x2 2 1 [0 0] [1 4]] (REQUEST)
r 1.002739253 _1_ RTR  --- 0 AODV 48 [0 ffffffff 2 800] ------- [2:255 -1:255 29 0] [0x2 2 1 [0 0] [1 4]] (REQUEST)
r 1.002739376 _17_ RTR  --- 0 AODV 48 [0 ffffffff 2 800] ------- [2:255 -1:255 29 0] [0x2 2 1 [0 0] [1 4]] (REQUEST)
s 1.003167322 _17_ RTR  --- 0 AODV 48 [0 ffffffff 2 800] ------- [17:255 -1:255 28 0] [0x2 3 1 [0 0] [1 4]] (REQUEST)
s 1.003402322 _17_ MAC  --- 0 AODV 106 [0 ffffffff 11 800] ------- [17:255 -1:255 28 0] [0x2 3 1 [0 0] [1 4]] (REQUEST)
r 1.004250801 _21_ MAC  --- 0 AODV 48 [0 ffffffff 11 800] ------- [17:255 -1:255 28 0] [0x2 3 1 [0 0] [1 4]] (REQUEST)
r 1.004250845 _18_ MAC  --- 0 AODV 48 [0 ffffffff 11 800] ------- [17:255 -1:255 28 0] [0x2 3 1 [0 0] [1 4]] (REQUEST)
r 1.004250884 _19_ MAC  --- 0 AODV 48 [0 ffffffff 11 800] ------- [17:255 -1:255 28 0] [0x2 3 1 [0 0] [1 4]] (REQUEST)
r 1.004250905 _20_ MAC  --- 0 AODV 48 [0 ffffffff 11 800] ------- [17:255 -1:255 28 0] [0x2 3 1 [0 0] [1 4]] (REQUEST)
r 1.004251003 _30_ MAC  --- 0 AODV 48 [0 ffffffff 11 800] ------- [17:255 -1:255 28 0] [0x2 3 1 [0 0] [1 4]] (REQUEST)
r 1.004251013 _16_ MAC  --- 0 AODV 48 [0 ffffffff 11 800] ------- [17:255 -1:255 28 0] [0x2 3 1 [0 0] [1 4]] (REQUEST)
r 1.004251049 _2_ MAC  --- 0 AODV 48 [0 ffffffff 11 800] ------- [17:255 -1:255 28 0] [0x2 3 1 [0 0] [1 4]] (REQUEST)
r 1.004275801 _21_ RTR  --- 0 AODV 48 [0 ffffffff 11 800] ------- [17:255 -1:255 28 0] [0x2 3 1 [0 0] [1 4]] (REQUEST)
r 1.004275845 _18_ RTR  --- 0 AODV 48 [0 ffffffff 11 800] ------- [17:255 -1:255 28 0] [0x2 3 1 [0 0] [1 4]] (REQUEST)
r 1.004275884 _19_ RTR  --- 0 AODV 48 [0 ffffffff 11 800] ------- [17:255 -1:255 28 0] [0x2 3 1 [0 0] [1 4]] (REQUEST)
r 1.004275905 _20_ RTR  --- 0 AODV 48 [0 ffffffff 11 800] ------- [17:255 -1:255 28 0] [0x2 3 1 [0 0] [1 4]] (REQUEST)
r 1.004276003 _30_ RTR  --- 0 AODV 48 [0 ffffffff 11 800] ------- [17:255 -1:255 28 0] [0x2 3 1 [0 0] [1 4]] (REQUEST)
r 1.004276013 _16_ RTR  --- 0 AODV 48 [0 ffffffff 11 800] ------- [17:255 -1:255 28 0] [0x2 3 1 [0 0] [1 4]] (REQUEST)
r 1.004276049 _2_ RTR  --- 0 AODV 48 [0 ffffffff 11 800] ------- [17:255 -1:255 28 0] [0x2 3 1 [0 0] [1 4]] (REQUEST)
s 1.004380601 _16_ RTR  --- 0 AODV 48 [0 ffffffff 2 800] ------- [16:255 -1:255 28 0] [0x2 3 1 [0 0] [1 4]] (REQUEST)
s 1.004400884 _19_ MAC  --- 0 AODV 106 [0 ffffffff 13 800] ------- [19:255 -1:255 29 0] [0x2 2 1 [0 0] [1 4]] (REQUEST)
s 1.004538400 _43_ RTR  --- 0 AODV 48 [0 ffffffff 1 800] ------- [43:255 -1:255 29 0] [0x2 2 1 [0 0] [1 4]] (REQUEST)
s 1.005217391 _30_ RTR  --- 0 AODV 48 [0 ffffffff 11 800] ------- [30:255 -1:255 27 0] [0x2 4 1 [0 0] [1 4]] (REQUEST)
r 1.005249321 _18_ MAC  --- 0 AODV 48 [0 ffffffff 13 800] ------- [19:255 -1:255 29 0] [0x2 2 1 [0 0] [1 4]] (REQUEST)
r 1.005249429 _33_ MAC  --- 0 AODV 48 [0 ffffffff 13 800] ------- [19:255 -1:255 29 0] [0x2 2 1 [0 0] [1 4]] (REQUEST)
r 1.005249447 _17_ MAC  --- 0 AODV 48 [0 ffffffff 13 800] ------- [19:255 -1:255 29 0] [0x2 2 1 [0 0] [1 4]] (REQUEST)
r 1.005249468 _31_ MAC  --- 0 AODV 48 [0 ffffffff 13 800] ------- [19:255 -1:255 29 0] [0x2 2 1 [0 0] [1 4]] (REQUEST)
r 1.005249576 _1_ MAC  --- 0 AODV 48 [0 ffffffff 13 800] ------- [19:255 -1:255 29 0] [0x2 2 1 [0 0] [1 4]] (REQUEST)
r 1.005249640 _20_ MAC  --- 0 AODV 48 [0 ffffffff 13 800] ------- [19:255 -1:255 29 0] [0x2 2 1 [0 0] [1 4]] (REQUEST)
r 1.005274321 _18_ RTR  --- 0 AODV 48 [0 ffffffff 13 800] ------- [19:255 -1:255 29 0] [0x2 2 1 [0 0] [1 4]] (REQUEST)
r 1.005274429 _33_ RTR  --- 0 AODV 48 [0 ffffffff 13 800] ------- [19:255 -1:255 29 0] [0x2 2 1 [0 0] [1 4]] (REQUEST)
r 1.005274447 _17_ RTR  --- 0 AODV 48 [0 ffffffff 13 800] ------- [19:255 -1:255 29 0] [0x2 2 1 [0 0] [1 4]] (REQUEST)
r 1.005274468 _31_ RTR  --- 0 AODV 48 [0 ffffffff 13 800] ------- [19:255 -1:255 29 0] [0x2 2 1 [0 0] [1 4]] (REQUEST)
r 1.005274576 _1_ RTR  --- 0 AODV 48 [0 ffffffff 13 800] ------- [19:255 -1:255 29 0] [0x2 2 1 [0 0] [1 4]] (REQUEST)
r 1.005274640 _20_ RTR  --- 0 AODV 48 [0 ffffffff 13 800] ------- [19:255 -1:255 29 0] [0x2 2 1 [0 0] [1 4]] (REQUEST)
s 1.005820489 _38_ RTR  --- 0 AODV 48 [0 ffffffff 1 800] ------- [38:255 -1:255 29 0] [0x2 2 1 [0 0] [1 4]] (REQUEST)
s 1.005864344 _43_ MAC  --- 0 AODV 106 [0 ffffffff 2b 800] ------- [43:255 -1:255 29 0] [0x2 2 1 [0 0] [1 4]] (REQUEST)
s 1.005884128 _30_ MAC  --- 0 AODV 106 [0 ffffffff 1e 800] ------- [30:255 -1:255 27 0] [0x2 4 1 [0 0] [1 4]] (REQUEST)
s 1.006023958 _20_ RTR  --- 0 AODV 48 [0 ffffffff 11 800] ------- [20:255 -1:255 27 0] [0x2 4 1 [0 0] [1 4]] (REQUEST)
r 1.006712496 _38_ MAC  --- 0 AODV 48 [0 ffffffff 2b 800] ------- [43:255 -1:255 29 0] [0x2 2 1 [0 0] [1 4]] (REQUEST)
r 1.006712764 _34_ MAC  --- 0 AODV 48 [0 ffffffff 2b 800] ------- [43:255 -1:255 29 0] [0x2 2 1 [0 0] [1 4]] (REQUEST)
r 1.006713095 _44_ MAC  --- 0 AODV 48 [0 ffffffff 2b 800] ------- [43:255 -1:255 29 0] [0x2 2 1 [0 0] [1 4]] (REQUEST)
r 1.006713127 _1_ MAC  --- 0 AODV 48 [0 ffffffff 2b 800] ------- [43:255 -1:255 29 0] [0x2 2 1 [0 0] [1 4]] (REQUEST)
r 1.006732657 _21_ MAC  --- 0 AODV 48 [0 ffffffff 1e 800] ------- [30:255 -1:255 27 0] [0x2 4 1 [0 0] [1 4]] (REQUEST)
D 1.006732727 _16_ MAC  COL 0 AODV 106 [0 ffffffff 1e 800] ------- [30:255 -1:255 27 0] [0x2 4 1 [0 0] [1 4]] (REQUEST)
r 1.006732808 _29_ MAC  --- 0 AODV 48 [0 ffffffff 1e 800] ------- [30:255 -1:255 27 0] [0x2 4 1 [0 0] [1 4]] (REQUEST)
D 1.006732809 _17_ MAC  COL 0 AODV 106 [0 ffffffff 1e 800] ------- [30:255 -1:255 27 0] [0x2 4 1 [0 0] [1 4]] (REQUEST)
r 1.006737496 _38_ RTR  --- 0 AODV 48 [0 ffffffff 2b 800] ------- [43:255 -1:255 29 0] [0x2 2 1 [0 0] [1 4]] (REQUEST)
r 1.006737764 _34_ RTR  --- 0 AODV 48 [0 ffffffff 2b 800] ------- [43:255 -1:255 29 0] [0x2 2 1 [0 0] [1 4]] (REQUEST)
r 1.006738095 _44_ RTR  --- 0 AODV 48 [0 ffffffff 2b 800] ------- [43:255 -1:255 29 0] [0x2 2 1 [0 0] [1 4]] (REQUEST)
r 1.006738127 _1_ RTR  --- 0 AODV 48 [0 ffffffff 2b 800] ------- [43:255 -1:255 29 0] [0x2 2 1 [0 0] [1 4]] (REQUEST)
r 1.006757657 _21_ RTR  --- 0 AODV 48 [0 ffffffff 1e 800] ------- [30:255 -1:255 27 0] [0x2 4 1 [0 0] [1 4]] (REQUEST)
r 1.006757808 _29_ RTR  --- 0 AODV 48 [0 ffffffff 1e 800] ------- [30:255 -1:255 27 0] [0x2 4 1 [0 0] [1 4]] (REQUEST)
s 1.007202496 _38_ MAC  --- 0 AODV 106 [0 ffffffff 26 800] ------- [38:255 -1:255 29 0] [0x2 2 1 [0 0] [1 4]] (REQUEST)
s 1.007327082 _20_ MAC  --- 0 AODV 106 [0 ffffffff 14 800] ------- [20:255 -1:255 27 0] [0x2 4 1 [0 0] [1 4]] (REQUEST)
r 1.008050648 _43_ MAC  --- 0 AODV 48 [0 ffffffff 26 800] ------- [38:255 -1:255 29 0] [0x2 2 1 [0 0] [1 4]] (REQUEST)
r 1.008050764 _34_ MAC  --- 0 AODV 48 [0 ffffffff 26 800] ------- [38:255 -1:255 29 0] [0x2 2 1 [0 0] [1 4]] (REQUEST)
r 1.008051173 _44_ MAC  --- 0 AODV 48 [0 ffffffff 26 800] ------- [38:255 -1:255 29 0] [0x2 2 1 [0 0] [1 4]] (REQUEST)
r 1.008051251 _1_ MAC  --- 0 AODV 48 [0 ffffffff 26 800] ------- [38:255 -1:255 29 0] [0x2 2 1 [0 0] [1 4]] (REQUEST)
r 1.008051299 _39_ MAC  --- 0 AODV 48 [0 ffffffff 26 800] ------- [38:255 -1:255 29 0] [0x2 2 1 [0 0] [1 4]] (REQUEST)
r 1.008075648 _43_ RTR  --- 0 AODV 48 [0 ffffffff 26 800] ------- [38:255 -1:255 29 0] [0x2 2 1 [0 0] [1 4]] (REQUEST)
r 1.008075764 _34_ RTR  --- 0 AODV 48 [0 ffffffff 26 800] ------- [38:255 -1:255 29 0] [0x2 2 1 [0 0] [1 4]] (REQUEST)
r 1.008076173 _44_ RTR  --- 0 AODV 48 [0 ffffffff 26 800] ------- [38:255 -1:255 29 0] [0x2 2 1 [0 0] [1 4]] (REQUEST)
r 1.008076251 _1_ RTR  --- 0 AODV 48 [0 ffffffff 26 800] ------- [38:255 -1:255 29 0] [0x2 2 1 [0 0] [1 4]] (REQUEST)
r 1.008076299 _39_ RTR  --- 0 AODV 48 [0 ffffffff 26 800] ------- [38:255 -1:255 29 0] [0x2 2 1 [0 0] [1 4]] (REQUEST)
r 1.008175422 _18_ MAC  --- 0 AODV 48 [0 ffffffff 14 800] ------- [20:255 -1:255 27 0] [0x2 4 1 [0 0] [1 4]] (REQUEST)
r 1.008175516 _21_ MAC  --- 0 AODV 48 [0 ffffffff 14 800] ------- [20:255 -1:255 27 0] [0x2 4 1 [0 0] [1 4]] (REQUEST)
D 1.008175665 _17_ MAC  COL 0 AODV 106 [0 ffffffff 14 800] ------- [20:255 -1:255 27 0] [0x2 4 1 [0 0] [1 4]] (REQUEST)
D 1.008175838 _19_ MAC  COL 0 AODV 106 [0 ffffffff 14 800] ------- [20:255 -1:255 27 0] [0x2 4 1 [0 0] [1 4]] (REQUEST)
r 1.008200422 _18_ RTR  --- 0 AODV 48 [0 ffffffff 14 800] ------- [20:255 -1:255 27 0] [0x2 4 1 [0 0] [1 4]] (REQUEST)
r 1.008200516 _21_ RTR  --- 0 AODV 48 [0 ffffffff 14 800] ------- [20:255 -1:255 27 0] [0x2 4 1 [0 0] [1 4]] (REQUEST)
s 1.008512413 _18_ RTR  --- 0 AODV 48 [0 ffffffff 11 800] ------- [18:255 -1:255 27 0] [0x2 4 1 [0 0] [1 4]] (REQUEST)
s 1.008670312 _16_ MAC  --- 0 AODV 106 [0 ffffffff 10 800] ------- [16:255 -1:255 28 0] [0x2 3 1 [0 0] [1 4]] (REQUEST)
s 1.008909690 _44_ RTR  --- 0 AODV 48 [0 ffffffff 2b 800] ------- [44:255 -1:255 28 0] [0x2 3 1 [0 0] [1 4]] (REQUEST)
s 1.009064690 _44_ MAC  --- 0 AODV 106 [0 ffffffff 2c 800] ------- [44:255 -1:255 28 0] [0x2 3 1 [0 0] [1 4]] (REQUEST)
s 1.009170064 _29_ RTR  --- 0 AODV 48 [0 ffffffff 1e 800] ------- [29:255 -1:255 26 0] [0x2 5 1 [0 0] [1 4]] (REQUEST)
s 1.009400336 _34_ RTR  --- 0 AODV 48 [0 ffffffff 1 800] ------- [34:255 -1:255 29 0] [0x2 2 1 [0 0] [1 4]] (REQUEST)
r 1.009518726 _5_ MAC  --- 0 AODV 48 [0 ffffffff 10 800] ------- [16:255 -1:255 28 0] [0x2 3 1 [0 0] [1 4]] (REQUEST)
r 1.009518809 _2_ MAC  --- 0 AODV 48 [0 ffffffff 10 800] ------- [16:255 -1:255 28 0] [0x2 3 1 [0 0] [1 4]] (REQUEST)
r 1.009518867 _15_ MAC  --- 0 AODV 48 [0 ffffffff 10 800] ------- [16:255 -1:255 28 0] [0x2 3 1 [0 0] [1 4]] (REQUEST)
r 1.009518908 _29_ MAC  --- 0 AODV 48 [0 ffffffff 10 800] ------- [16:255 -1:255 28 0] [0x2 3 1 [0 0] [1 4]] (REQUEST)
r 1.009518911 _30_ MAC  --- 0 AODV 48 [0 ffffffff 10 800] ------- [16:255 -1:255 28 0] [0x2 3 1 [0 0] [1 4]] (REQUEST)
r 1.009518997 _6_ MAC  --- 0 AODV 48 [0 ffffffff 10 800] ------- [16:255 -1:255 28 0] [0x2 3 1 [0 0] [1 4]] (REQUEST)
r 1.009519003 _17_ MAC  --- 0 AODV 48 [0 ffffffff 10 800] ------- [16:255 -1:255 28 0] [0x2 3 1 [0 0] [1 4]] (REQUEST)
r 1.009543726 _5_ RTR  --- 0 AODV 48 [0 ffffffff 10 800] ------- [16:255 -1:255 28 0] [0x2 3 1 [0 0] [1 4]] (REQUEST)
r 1.009543809 _2_ RTR  --- 0 AODV 48 [0 ffffffff 10 800] ------- [16:255 -1:255 28 0] [0x2 3 1 [0 0] [1 4]] (REQUEST)
r 1.009543867 _15_ RTR  --- 0 AODV 48 [0 ffffffff 10 800] ------- [16:255 -1:255 28 0] [0x2 3 1 [0 0] [1 4]] (REQUEST)
r 1.009543908 _29_ RTR  --- 0 AODV 48 [0 ffffffff 10 800] ------- [16:255 -1:255 28 0] [0x2 3 1 [0 0] [1 4]] (REQUEST)
r 1.009543911 _30_ RTR  --- 0 AODV 48 [0 ffffffff 10 800] ------- [16:255 -1:255 28 0] [0x2 3 1 [0 0] [1 4]] (REQUEST)
r 1.009543997 _6_ RTR  --- 0 AODV 48 [0 ffffffff 10 800] ------- [16:255 -1:255 28 0] [0x2 3 1 [0 0] [1 4]] (REQUEST)
r 1.009544003 _17_ RTR  --- 0 AODV 48 [0 ffffffff 10 800] ------- [16:255 -1:255 28 0] [0x2 3 1 [0 0] [1 4]] (REQUEST)
s 1.009573547 _33_ RTR  --- 0 AODV 48 [0 ffffffff 1 800] ------- [33:255 -1:255 29 0] [0x2 2 1 [0 0] [1 4]] (REQUEST)
s 1.009848908 _29_ MAC  --- 0 AODV 106 [0 ffffffff 1d 800] ------- [29:255 -1:255 26 0] [0x2 5 1 [0 0] [1 4]] (REQUEST)
D 1.009912907 _39_ MAC  COL 0 AODV 106 [0 ffffffff 2c 800] ------- [44:255 -1:255 28 0] [0x2 3 1 [0 0] [1 4]] (REQUEST)
D 1.009913178 _35_ MAC  COL 0 AODV 106 [0 ffffffff 2c 800] ------- [44:255 -1:255 28 0] [0x2 3 1 [0 0] [1 4]] (REQUEST)
D 1.009913308 _34_ MAC  COL 0 AODV 106 [0 ffffffff 2c 800] ------- [44:255 -1:255 28 0] [0x2 3 1 [0 0] [1 4]] (REQUEST)
D 1.009913367 _38_ MAC  COL 0 AODV 106 [0 ffffffff 2c 800] ------- [44:255 -1:255 28 0] [0x2 3 1 [0 0] [1 4]] (REQUEST)
D 1.009913441 _43_ MAC  COL 0 AODV 106 [0 ffffffff 2c 800] ------- [44:255 -1:255 28 0] [0x2 3 1 [0 0] [1 4]] (REQUEST)
r 1.009913480 _45_ MAC  --- 0 AODV 48 [0 ffffffff 2c 800] ------- [44:255 -1:255 28 0] [0x2 3 1 [0 0] [1 4]] (REQUEST)
r 1.009938480 _45_ RTR  --- 0 AODV 48 [0 ffffffff 2c 800] ------- [44:255 -1:255 28 0] [0x2 3 1 [0 0] [1 4]] (REQUEST)
s 1.010133919 _33_ MAC  --- 0 AODV 106 [0 ffffffff 21 800] ------- [33:255 -1:255 29 0] [0x2 2 1 [0 0] [1 4]] (REQUEST)
s 1.010460956 _31_ RTR  --- 0 AODV 48 [0 ffffffff 13 800] ------- [31:255 -1:255 28 0] [0x2 3 1 [0 0] [1 4]] (REQUEST)
s 1.010522506 _45_ RTR  --- 0 AODV 48 [0 ffffffff 2c 800] ------- [45:255 -1:255 27 0] [0x2 4 1 [0 0] [1 4]] (REQUEST)
r 1.010697202 _15_ MAC  --- 0 AODV 48 [0 ffffffff 1d 800] ------- [29:255 -1:255 26 0] [0x2 5 1 [0 0] [1 4]] (REQUEST)
r 1.010697505 _16_ MAC  --- 0 AODV 48 [0 ffffffff 1d 800] ------- [29:255 -1:255 26 0] [0x2 5 1 [0 0] [1 4]] (REQUEST)
r 1.010697535 _6_ MAC  --- 0 AODV 48 [0 ffffffff 1d 800] ------- [29:255 -1:255 26 0] [0x2 5 1 [0 0] [1 4]] (REQUEST)
r 1.010697589 _30_ MAC  --- 0 AODV 48 [0 ffffffff 1d 800] ------- [29:255 -1:255 26 0] [0x2 5 1 [0 0] [1 4]] (REQUEST)
r 1.010697645 _10_ MAC  --- 0 AODV 48 [0 ffffffff 1d 800] ------- [29:255 -1:255 26 0] [0x2 5 1 [0 0] [1 4]] (REQUEST)
r 1.010697659 _5_ MAC  --- 0 AODV 48 [0 ffffffff 1d 800] ------- [29:255 -1:255 26 0] [0x2 5 1 [0 0] [1 4]] (REQUEST)
r 1.010722202 _15_ RTR  --- 0 AODV 48 [0 ffffffff 1d 800] ------- [29:255 -1:255 26 0] [0x2 5 1 [0 0] [1 4]] (REQUEST)
r 1.010722505 _16_ RTR  --- 0 AODV 48 [0 ffffffff 1d 800] ------- [29:255 -1:255 26 0] [0x2 5 1 [0 0] [1 4]] (REQUEST)
r 1.010722535 _6_ RTR  --- 0 AODV 48 [0 ffffffff 1d 800] ------- [29:255 -1:255 26 0] [0x2 5 1 [0 0] [1 4]] (REQUEST)
r 1.010722589 _30_ RTR  --- 0 AODV 48 [0 ffffffff 1d 800] ------- [29:255 -1:255 26 0] [0x2 5 1 [0 0] [1 4]] (REQUEST)
r 1.010722645 _10_ RTR  --- 0 AODV 48 [0 ffffffff 1d 800] ------- [29:255 -1:255 26 0] [0x2 5 1 [0 0] [1 4]] (REQUEST)
r 1.010722659 _5_ RTR  --- 0 AODV 48 [0 ffffffff 1d 800] ------- [29:255 -1:255 26 0] [0x2 5 1 [0 0] [1 4]] (REQUEST)
s 1.010937506 _45_ MAC  --- 0 AODV 106 [0 ffffffff 2d 800] ------- [45:255 -1:255 27 0] [0x2 4 1 [0 0] [1 4]] (REQUEST)
r 1.010982262 _31_ MAC  --- 0 AODV 48 [0 ffffffff 21 800] ------- [33:255 -1:255 29 0] [0x2 2 1 [0 0] [1 4]] (REQUEST)
D 1.010982463 _19_ MAC  COL 0 AODV 106 [0 ffffffff 21 800] ------- [33:255 -1:255 29 0] [0x2 2 1 [0 0] [1 4]] (REQUEST)
D 1.010982705 _1_ MAC  COL 0 AODV 106 [0 ffffffff 21 800] ------- [33:255 -1:255 29 0] [0x2 2 1 [0 0] [1 4]] (REQUEST)
r 1.011007262 _31_ RTR  --- 0 AODV 48 [0 ffffffff 21 800] ------- [33:255 -1:255 29 0] [0x2 2 1 [0 0] [1 4]] (REQUEST)
s 1.011102346 _5_ RTR  --- 0 AODV 48 [0 ffffffff 2 800] ------- [5:255 -1:255 28 0] [0x2 3 1 [0 0] [1 4]] (REQUEST)
s 1.011152262 _31_ MAC  --- 0 AODV 106 [0 ffffffff 1f 800] ------- [31:255 -1:255 28 0] [0x2 3 1 [0 0] [1 4]] (REQUEST)
s 1.011677641 _5_ MAC  --- 0 AODV 106 [0 ffffffff 5 800] ------- [5:255 -1:255 28 0] [0x2 3 1 [0 0] [1 4]] (REQUEST)
r 1.011785734 _40_ MAC  --- 0 AODV 48 [0 ffffffff 2d 800] ------- [45:255 -1:255 27 0] [0x2 4 1 [0 0] [1 4]] (REQUEST)
r 1.011786005 _36_ MAC  --- 0 AODV 48 [0 ffffffff 2d 800] ------- [45:255 -1:255 27 0] [0x2 4 1 [0 0] [1 4]] (REQUEST)
r 1.011786114 _35_ MAC  --- 0 AODV 48 [0 ffffffff 2d 800] ------- [45:255 -1:255 27 0] [0x2 4 1 [0 0] [1 4]] (REQUEST)
r 1.011786168 _39_ MAC  --- 0 AODV 48 [0 ffffffff 2d 800] ------- [45:255 -1:255 27 0] [0x2 4 1 [0 0] [1 4]] (REQUEST)
r 1.011786290 _46_ MAC  --- 0 AODV 48 [0 ffffffff 2d 800] ------- [45:255 -1:255 27 0] [0x2 4 1 [0 0] [1 4]] (REQUEST)
r 1.011786296 _44_ MAC  --- 0 AODV 48 [0 ffffffff 2d 800] ------- [45:255 -1:255 27 0] [0x2 4 1 [0 0] [1 4]] (REQUEST)
r 1.011810734 _40_ RTR  --- 0 AODV 48 [0 ffffffff 2d 800] ------- [45:255 -1:255 27 0] [0x2 4 1 [0 0] [1 4]] (REQUEST)
r 1.011811005 _36_ RTR  --- 0 AODV 48 [0 ffffffff 2d 800] ------- [45:255 -1:255 27 0] [0x2 4 1 [0 0] [1 4]] (REQUEST)
r 1.011811114 _35_ RTR  --- 0 AODV 48 [0 ffffffff 2d 800] ------- [45:255 -1:255 27 0] [0x2 4 1 [0 0] [1 4]] (REQUEST)
r 1.011811168 _39_ RTR  --- 0 AODV 48 [0 ffffffff 2d 800] ------- [45:255 -1:255 27 0] [0x2 4 1 [0 0] [1 4]] (REQUEST)
r 1.011811290 _46_ RTR  --- 0 AODV 48 [0 ffffffff 2d 800] ------- [45:255 -1:255 27 0] [0x2 4 1 [0 0] [1 4]] (REQUEST)
r 1.011811296 _44_ RTR  --- 0 AODV 48 [0 ffffffff 2d 800] ------- [45:255 -1:255 27 0] [0x2 4 1 [0 0] [1 4]] (REQUEST)
s 1.011953680 _10_ RTR  --- 0 AODV 48 [0 ffffffff 1d 800] ------- [10:255 -1:255 25 0] [0x2 6 1 [0 0] [1 4]] (REQUEST)
r 1.012000604 _33_ MAC  --- 0 AODV 48 [0 ffffffff 1f 800] ------- [31:255 -1:255 28 0] [0x2 3 1 [0 0] [1 4]] (REQUEST)
r 1.012000845 _19_ MAC  --- 0 AODV 48 [0 ffffffff 1f 800] ------- [31:255 -1:255 28 0] [0x2 3 1 [0 0] [1 4]] (REQUEST)
r 1.012000982 _18_ MAC  --- 0 AODV 48 [0 ffffffff 1f 800] ------- [31:255 -1:255 28 0] [0x2 3 1 [0 0] [1 4]] (REQUEST)
r 1.012025604 _33_ RTR  --- 0 AODV 48 [0 ffffffff 1f 800] ------- [31:255 -1:255 28 0] [0x2 3 1 [0 0] [1 4]] (REQUEST)
r 1.012025845 _19_ RTR  --- 0 AODV 48 [0 ffffffff 1f 800] ------- [31:255 -1:255 28 0] [0x2 3 1 [0 0] [1 4]] (REQUEST)
r 1.012025982 _18_ RTR  --- 0 AODV 48 [0 ffffffff 1f 800] ------- [31:255 -1:255 28 0] [0x2 3 1 [0 0] [1 4]] (REQUEST)
D 1.012526055 _16_ MAC  COL 0 AODV 106 [0 ffffffff 5 800] ------- [5:255 -1:255 28 0] [0x2 3 1 [0 0] [1 4]] (REQUEST)
r 1.012526068 _6_ MAC  --- 0 AODV 48 [0 ffffffff 5 800] ------- [5:255 -1:255 28 0] [0x2 3 1 [0 0] [1 4]] (REQUEST)
D 1.012526102 _2_ MAC  COL 0 AODV 106 [0 ffffffff 5 800] ------- [5:255 -1:255 28 0] [0x2 3 1 [0 0] [1 4]] (REQUEST)
r 1.012526174 _15_ MAC  --- 0 AODV 48 [0 ffffffff 5 800] ------- [5:255 -1:255 28 0] [0x2 3 1 [0 0] [1 4]] (REQUEST)
r 1.012526391 _29_ MAC  --- 0 AODV 48 [0 ffffffff 5 800] ------- [5:255 -1:255 28 0] [0x2 3 1 [0 0] [1 4]] (REQUEST)
D 1.012526398 _12_ MAC  COL 0 AODV 106 [0 ffffffff 5 800] ------- [5:255 -1:255 28 0] [0x2 3 1 [0 0] [1 4]] (REQUEST)
r 1.012551068 _6_ RTR  --- 0 AODV 48 [0 ffffffff 5 800] ------- [5:255 -1:255 28 0] [0x2 3 1 [0 0] [1 4]] (REQUEST)
r 1.012551174 _15_ RTR  --- 0 AODV 48 [0 ffffffff 5 800] ------- [5:255 -1:255 28 0] [0x2 3 1 [0 0] [1 4]] (REQUEST)
r 1.012551391 _29_ RTR  --- 0 AODV 48 [0 ffffffff 5 800] ------- [5:255 -1:255 28 0] [0x2 3 1 [0 0] [1 4]] (REQUEST)
s 1.012873078 _21_ RTR  --- 0 AODV 48 [0 ffffffff 11 800] ------- [21:255 -1:255 27 0] [0x2 4 1 [0 0] [1 4]] (REQUEST)
s 1.012948078 _21_ MAC  --- 0 AODV 106 [0 ffffffff 15 800] ------- [21:255 -1:255 27 0] [0x2 4 1 [0 0] [1 4]] (REQUEST)
s 1.013140661 _34_ MAC  --- 0 AODV 106 [0 ffffffff 22 800] ------- [34:255 -1:255 29 0] [0x2 2 1 [0 0] [1 4]] (REQUEST)
r 1.013796513 _20_ MAC  --- 0 AODV 48 [0 ffffffff 15 800] ------- [21:255 -1:255 27 0] [0x2 4 1 [0 0] [1 4]] (REQUEST)
r 1.013796558 _17_ MAC  --- 0 AODV 48 [0 ffffffff 15 800] ------- [21:255 -1:255 27 0] [0x2 4 1 [0 0] [1 4]] (REQUEST)
r 1.013796607 _30_ MAC  --- 0 AODV 48 [0 ffffffff 15 800] ------- [21:255 -1:255 27 0] [0x2 4 1 [0 0] [1 4]] (REQUEST)
r 1.013796740 _18_ MAC  --- 0 AODV 48 [0 ffffffff 15 800] ------- [21:255 -1:255 27 0] [0x2 4 1 [0 0] [1 4]] (REQUEST)
r 1.013821513 _20_ RTR  --- 0 AODV 48 [0 ffffffff 15 800] ------- [21:255 -1:255 27 0] [0x2 4 1 [0 0] [1 4]] (REQUEST)
r 1.013821558 _17_ RTR  --- 0 AODV 48 [0 ffffffff 15 800] ------- [21:255 -1:255 27 0] [0x2 4 1 [0 0] [1 4]] (REQUEST)
r 1.013821607 _30_ RTR  --- 0 AODV 48 [0 ffffffff 15 800] ------- [21:255 -1:255 27 0] [0x2 4 1 [0 0] [1 4]] (REQUEST)
r 1.013821740 _18_ RTR  --- 0 AODV 48 [0 ffffffff 15 800] ------- [21:255 -1:255 27 0] [0x2 4 1 [0 0] [1 4]] (REQUEST)
s 1.013906740 _18_ MAC  --- 0 AODV 106 [0 ffffffff 12 800] ------- [18:255 -1:255 27 0] [0x2 4 1 [0 0] [1 4]] (REQUEST)
D 1.013907848 _1_ MAC  COL 0 AODV 106 [0 ffffffff 22 800] ------- [34:255 -1:255 29 0] [0x2 2 1 [0 0] [1 4]] (REQUEST)
r 1.013988929 _38_ MAC  --- 0 AODV 48 [0 ffffffff 22 800] ------- [34:255 -1:255 29 0] [0x2 2 1 [0 0] [1 4]] (REQUEST)
r 1.013989081 _43_ MAC  --- 0 AODV 48 [0 ffffffff 22 800] ------- [34:255 -1:255 29 0] [0x2 2 1 [0 0] [1 4]] (REQUEST)
r 1.013989279 _44_ MAC  --- 0 AODV 48 [0 ffffffff 22 800] ------- [34:255 -1:255 29 0] [0x2 2 1 [0 0] [1 4]] (REQUEST)
r 1.013989334 _39_ MAC  --- 0 AODV 48 [0 ffffffff 22 800] ------- [34:255 -1:255 29 0] [0x2 2 1 [0 0] [1 4]] (REQUEST)
r 1.013989461 _35_ MAC  --- 0 AODV 48 [0 ffffffff 22 800] ------- [34:255 -1:255 29 0] [0x2 2 1 [0 0] [1 4]] (REQUEST)
r 1.014013929 _38_ RTR  --- 0 AODV 48 [0 ffffffff 22 800] ------- [34:255 -1:255 29 0] [0x2 2 1 [0 0] [1 4]] (REQUEST)
r 1.014014081 _43_ RTR  --- 0 AODV 48 [0 ffffffff 22 800] ------- [34:255 -1:255 29 0] [0x2 2 1 [0 0] [1 4]] (REQUEST)
r 1.014014279 _44_ RTR  --- 0 AODV 48 [0 ffffffff 22 800] ------- [34:255 -1:255 29 0] [0x2 2 1 [0 0] [1 4]] (REQUEST)
r 1.014014334 _39_ RTR  --- 0 AODV 48 [0 ffffffff 22 800] ------- [34:255 -1:255 29 0] [0x2 2 1 [0 0] [1 4]] (REQUEST)
r 1.014014461 _35_ RTR  --- 0 AODV 48 [0 ffffffff 22 800] ------- [34:255 -1:255 29 0] [0x2 2 1 [0 0] [1 4]] (REQUEST)
s 1.014424458 _10_ MAC  --- 0 AODV 106 [0 ffffffff a 800] ------- [10:255 -1:255 25 0] [0x2 6 1 [0 0] [1 4]] (REQUEST)
s 1.014429356 _35_ RTR  --- 0 AODV 48 [0 ffffffff 2d 800] ------- [35:255 -1:255 26 0] [0x2 5 1 [0 0] [1 4]] (REQUEST)
r 1.014755080 _20_ MAC  --- 0 AODV 48 [0 ffffffff 12 800] ------- [18:255 -1:255 27 0] [0x2 4 1 [0 0] [1 4]] (REQUEST)
D 1.014755176 _19_ MAC  COL 0 AODV 106 [0 ffffffff 12 800] ------- [18:255 -1:255 27 0] [0x2 4 1 [0 0] [1 4]] (REQUEST)
r 1.014755263 _17_ MAC  --- 0 AODV 48 [0 ffffffff 12 800] ------- [18:255 -1:255 27 0] [0x2 4 1 [0 0] [1 4]] (REQUEST)
r 1.014755401 _21_ MAC  --- 0 AODV 48 [0 ffffffff 12 800] ------- [18:255 -1:255 27 0] [0x2 4 1 [0 0] [1 4]] (REQUEST)
D 1.014755460 _31_ MAC  COL 0 AODV 106 [0 ffffffff 12 800] ------- [18:255 -1:255 27 0] [0x2 4 1 [0 0] [1 4]] (REQUEST)
r 1.014780080 _20_ RTR  --- 0 AODV 48 [0 ffffffff 12 800] ------- [18:255 -1:255 27 0] [0x2 4 1 [0 0] [1 4]] (REQUEST)
r 1.014780263 _17_ RTR  --- 0 AODV 48 [0 ffffffff 12 800] ------- [18:255 -1:255 27 0] [0x2 4 1 [0 0] [1 4]] (REQUEST)
r 1.014780401 _21_ RTR  --- 0 AODV 48 [0 ffffffff 12 800] ------- [18:255 -1:255 27 0] [0x2 4 1 [0 0] [1 4]] (REQUEST)
s 1.014849789 _39_ RTR  --- 0 AODV 48 [0 ffffffff 26 800] ------- [39:255 -1:255 28 0] [0x2 3 1 [0 0] [1 4]] (REQUEST)
r 1.015272917 _8_ MAC  --- 0 AODV 48 [0 ffffffff a 800] ------- [10:255 -1:255 25 0] [0x2 6 1 [0 0] [1 4]] (REQUEST)
r 1.015272997 _6_ MAC  --- 0 AODV 48 [0 ffffffff a 800] ------- [10:255 -1:255 25 0] [0x2 6 1 [0 0] [1 4]] (REQUEST)
r 1.015273031 _12_ MAC  --- 0 AODV 48 [0 ffffffff a 800] ------- [10:255 -1:255 25 0] [0x2 6 1 [0 0] [1 4]] (REQUEST)
D 1.015273032 _15_ MAC  COL 0 AODV 106 [0 ffffffff a 800] ------- [10:255 -1:255 25 0] [0x2 6 1 [0 0] [1 4]] (REQUEST)
r 1.015273175 _9_ MAC  --- 0 AODV 48 [0 ffffffff a 800] ------- [10:255 -1:255 25 0] [0x2 6 1 [0 0] [1 4]] (REQUEST)
D 1.015273194 _29_ MAC  COL 0 AODV 106 [0 ffffffff a 800] ------- [10:255 -1:255 25 0] [0x2 6 1 [0 0] [1 4]] (REQUEST)
r 1.015297917 _8_ RTR  --- 0 AODV 48 [0 ffffffff a 800] ------- [10:255 -1:255 25 0] [0x2 6 1 [0 0] [1 4]] (REQUEST)
r 1.015297997 _6_ RTR  --- 0 AODV 48 [0 ffffffff a 800] ------- [10:255 -1:255 25 0] [0x2 6 1 [0 0] [1 4]] (REQUEST)
r 1.015298031 _12_ RTR  --- 0 AODV 48 [0 ffffffff a 800] ------- [10:255 -1:255 25 0] [0x2 6 1 [0 0] [1 4]] (REQUEST)
r 1.015298175 _9_ RTR  --- 0 AODV 48 [0 ffffffff a 800] ------- [10:255 -1:255 25 0] [0x2 6 1 [0 0] [1 4]] (REQUEST)
s 1.015404789 _39_ MAC  --- 0 AODV 106 [0 ffffffff 27 800] ------- [39:255 -1:255 28 0] [0x2 3 1 [0 0] [1 4]] (REQUEST)
s 1.016211600 _12_ RTR  --- 0 AODV 48 [0 ffffffff a 800] ------- [12:255 -1:255 24 0] [0x2 7 1 [0 0] [1 4]] (REQUEST)
r 1.016253006 _44_ MAC  --- 0 AODV 48 [0 ffffffff 27 800] ------- [39:255 -1:255 28 0] [0x2 3 1 [0 0] [1 4]] (REQUEST)
r 1.016253060 _35_ MAC  --- 0 AODV 48 [0 ffffffff 27 800] ------- [39:255 -1:255 28 0] [0x2 3 1 [0 0] [1 4]] (REQUEST)
r 1.016253451 _45_ MAC  --- 0 AODV 48 [0 ffffffff 27 800] ------- [39:255 -1:255 28 0] [0x2 3 1 [0 0] [1 4]] (REQUEST)
r 1.016253461 _34_ MAC  --- 0 AODV 48 [0 ffffffff 27 800] ------- [39:255 -1:255 28 0] [0x2 3 1 [0 0] [1 4]] (REQUEST)
r 1.016253559 _40_ MAC  --- 0 AODV 48 [0 ffffffff 27 800] ------- [39:255 -1:255 28 0] [0x2 3 1 [0 0] [1 4]] (REQUEST)
r 1.016253592 _38_ MAC  --- 0 AODV 48 [0 ffffffff 27 800] ------- [39:255 -1:255 28 0] [0x2 3 1 [0 0] [1 4]] (REQUEST)
r 1.016278006 _44_ RTR  --- 0 AODV 48 [0 ffffffff 27 800] ------- [39:255 -1:255 28 0] [0x2 3 1 [0 0] [1 4]] (REQUEST)
r 1.016278060 _35_ RTR  --- 0 AODV 48 [0 ffffffff 27 800] ------- [39:255 -1:255 28 0] [0x2 3 1 [0 0] [1 4]] (REQUEST)
r 1.016278451 _45_ RTR  --- 0 AODV 48 [0 ffffffff 27 800] ------- [39:255 -1:255 28 0] [0x2 3 1 [0 0] [1 4]] (REQUEST)
r 1.016278461 _34_ RTR  --- 0 AODV 48 [0 ffffffff 27 800] ------- [39:255 -1:255 28 0] [0x2 3 1 [0 0] [1 4]] (REQUEST)
r 1.016278559 _40_ RTR  --- 0 AODV 48 [0 ffffffff 27 800] ------- [39:255 -1:255 28 0] [0x2 3 1 [0 0] [1 4]] (REQUEST)
r 1.016278592 _38_ RTR  --- 0 AODV 48 [0 ffffffff 27 800] ------- [39:255 -1:255 28 0] [0x2 3 1 [0 0] [1 4]] (REQUEST)
s 1.016583060 _35_ MAC  --- 0 AODV 106 [0 ffffffff 23 800] ------- [35:255 -1:255 26 0] [0x2 5 1 [0 0] [1 4]] (REQUEST)
s 1.017258954 _40_ RTR  --- 0 AODV 48 [0 ffffffff 2d 800] ------- [40:255 -1:255 26 0] [0x2 5 1 [0 0] [1 4]] (REQUEST)
s 1.017359687 _46_ RTR  --- 0 AODV 48 [0 ffffffff 2d 800] ------- [46:255 -1:255 26 0] [0x2 5 1 [0 0] [1 4]] (REQUEST)
r 1.017431331 _39_ MAC  --- 0 AODV 48 [0 ffffffff 23 800] ------- [35:255 -1:255 26 0] [0x2 5 1 [0 0] [1 4]] (REQUEST)
r 1.017431548 _44_ MAC  --- 0 AODV 48 [0 ffffffff 23 800] ------- [35:255 -1:255 26 0] [0x2 5 1 [0 0] [1 4]] (REQUEST)
r 1.017431668 _45_ MAC  --- 0 AODV 48 [0 ffffffff 23 800] ------- [35:255 -1:255 26 0] [0x2 5 1 [0 0] [1 4]] (REQUEST)
r 1.017431694 _40_ MAC  --- 0 AODV 48 [0 ffffffff 23 800] ------- [35:255 -1:255 26 0] [0x2 5 1 [0 0] [1 4]] (REQUEST)
r 1.017431860 _34_ MAC  --- 0 AODV 48 [0 ffffffff 23 800] ------- [35:255 -1:255 26 0] [0x2 5 1 [0 0] [1 4]] (REQUEST)
r 1.017431863 _36_ MAC  --- 0 AODV 48 [0 ffffffff 23 800] ------- [35:255 -1:255 26 0] [0x2 5 1 [0 0] [1 4]] (REQUEST)
r 1.017456331 _39_ RTR  --- 0 AODV 48 [0 ffffffff 23 800] ------- [35:255 -1:255 26 0] [0x2 5 1 [0 0] [1 4]] (REQUEST)
r 1.017456548 _44_ RTR  --- 0 AODV 48 [0 ffffffff 23 800] ------- [35:255 -1:255 26 0] [0x2 5 1 [0 0] [1 4]] (REQUEST)
r 1.017456668 _45_ RTR  --- 0 AODV 48 [0 ffffffff 23 800] ------- [35:255 -1:255 26 0] [0x2 5 1 [0 0] [1 4]] (REQUEST)
r 1.017456694 _40_ RTR  --- 0 AODV 48 [0 ffffffff 23 800] ------- [35:255 -1:255 26 0] [0x2 5 1 [0 0] [1 4]] (REQUEST)
r 1.017456860 _34_ RTR  --- 0 AODV 48 [0 ffffffff 23 800] ------- [35:255 -1:255 26 0] [0x2 5 1 [0 0] [1 4]] (REQUEST)
r 1.017456863 _36_ RTR  --- 0 AODV 48 [0 ffffffff 23 800] ------- [35:255 -1:255 26 0] [0x2 5 1 [0 0] [1 4]] (REQUEST)
s 1.017681694 _40_ MAC  --- 0 AODV 106 [0 ffffffff 28 800] ------- [40:255 -1:255 26 0] [0x2 5 1 [0 0] [1 4]] (REQUEST)
s 1.018418302 _15_ RTR  --- 0 AODV 48 [0 ffffffff 10 800] ------- [15:255 -1:255 27 0] [0x2 4 1 [0 0] [1 4]] (REQUEST)
r 1.018529922 _45_ MAC  --- 0 AODV 48 [0 ffffffff 28 800] ------- [40:255 -1:255 26 0] [0x2 5 1 [0 0] [1 4]] (REQUEST)
r 1.018529967 _36_ MAC  --- 0 AODV 48 [0 ffffffff 28 800] ------- [40:255 -1:255 26 0] [0x2 5 1 [0 0] [1 4]] (REQUEST)
r 1.018530327 _35_ MAC  --- 0 AODV 48 [0 ffffffff 28 800] ------- [40:255 -1:255 26 0] [0x2 5 1 [0 0] [1 4]] (REQUEST)