s 1.000000000 _40_ AGT  --- 0 cbr 1000 [0 0 0 0] ------- [40:0 0:0 32 0] [0] 0 0
r 1.000000000 _40_ RTR  --- 0 cbr 1000 [0 0 0 0] ------- [40:0 0:0 32 0] [0] 0 0
s 1.000000000 _40_ RTR  --- 0 AODV 48 [0 0 0 0] ------- [40:255 -1:255 30 0] [0x2 1 1 [0 0] [40 4]] (REQUEST)
s 1.000535000 _40_ MAC  --- 0 AODV 106 [0 ffffffff 28 800] ------- [40:255 -1:255 30 0] [0x2 1 1 [0 0] [40 4]] (REQUEST)
r 1.001383552 _26_ MAC  --- 0 AODV 48 [0 ffffffff 28 800] ------- [40:255 -1:255 30 0] [0x2 1 1 [0 0] [40 4]] (REQUEST)
r 1.001383557 _46_ MAC  --- 0 AODV 48 [0 ffffffff 28 800] ------- [40:255 -1:255 30 0] [0x2 1 1 [0 0] [40 4]] (REQUEST)
r 1.001383572 _17_ MAC  --- 0 AODV 48 [0 ffffffff 28 800] ------- [40:255 -1:255 30 0] [0x2 1 1 [0 0] [40 4]] (REQUEST)
r 1.001383659 _10_ MAC  --- 0 AODV 48 [0 ffffffff 28 800] ------- [40:255 -1:255 30 0] [0x2 1 1 [0 0] [40 4]] (REQUEST)
r 1.001408552 _26_ RTR  --- 0 AODV 48 [0 ffffffff 28 800] ------- [40:255 -1:255 30 0] [0x2 1 1 [0 0] [40 4]] (REQUEST)
r 1.001408557 _46_ RTR  --- 0 AODV 48 [0 ffffffff 28 800] ------- [40:255 -1:255 30 0] [0x2 1 1 [0 0] [40 4]] (REQUEST)
r 1.001408572 _17_ RTR  --- 0 AODV 48 [0 ffffffff 28 800] ------- [40:255 -1:255 30 0] [0x2 1 1 [0 0] [40 4]] (REQUEST)
r 1.001408659 _10_ RTR  --- 0 AODV 48 [0 ffffffff 28 800] ------- [40:255 -1:255 30 0] [0x2 1 1 [0 0] [40 4]] (REQUEST)
s 1.001550599 _26_ RTR  --- 0 AODV 48 [0 ffffffff 28 800] ------- [26:255 -1:255 29 0] [0x2 2 1 [0 0] [40 4]] (REQUEST)
s 1.001785599 _26_ MAC  --- 0 AODV 106 [0 ffffffff 1a 800] ------- [26:255 -1:255 29 0] [0x2 2 1 [0 0] [40 4]] (REQUEST)
s 1.002289784 _46_ RTR  --- 0 AODV 48 [0 ffffffff 28 800] ------- [46:255 -1:255 29 0] [0x2 2 1 [0 0] [40 4]] (REQUEST)
r 1.002634015 _18_ MAC  --- 0 AODV 48 [0 ffffffff 1a 800] ------- [26:255 -1:255 29 0] [0x2 2 1 [0 0] [40 4]] (REQUEST)
r 1.002634152 _40_ MAC  --- 0 AODV 48 [0 ffffffff 1a 800] ------- [26:255 -1:255 29 0] [0x2 2 1 [0 0] [40 4]] (REQUEST)
r 1.002634162 _39_ MAC  --- 0 AODV 48 [0 ffffffff 1a 800] ------- [26:255 -1:255 29 0] [0x2 2 1 [0 0] [40 4]] (REQUEST)
r 1.002634315 _41_ MAC  --- 0 AODV 48 [0 ffffffff 1a 800] ------- [26:255 -1:255 29 0] [0x2 2 1 [0 0] [40 4]] (REQUEST)
r 1.002659015 _18_ RTR  --- 0 AODV 48 [0 ffffffff 1a 800] ------- [26:255 -1:255 29 0] [0x2 2 1 [0 0] [40 4]] (REQUEST)
r 1.002659152 _40_ RTR  --- 0 AODV 48 [0 ffffffff 1a 800] ------- [26:255 -1:255 29 0] [0x2 2 1 [0 0] [40 4]] (REQUEST)
r 1.002659162 _39_ RTR  --- 0 AODV 48 [0 ffffffff 1a 800] ------- [26:255 -1:255 29 0] [0x2 2 1 [0 0] [40 4]] (REQUEST)
r 1.002659315 _41_ RTR  --- 0 AODV 48 [0 ffffffff 1a 800] ------- [26:255 -1:255 29 0] [0x2 2 1 [0 0] [40 4]] (REQUEST)
s 1.003248702 _46_ MAC  --- 0 AODV 106 [0 ffffffff 2e 800] ------- [46:255 -1:255 29 0] [0x2 2 1 [0 0] [40 4]] (REQUEST)
r 1.004097114 _16_ MAC  --- 0 AODV 48 [0 ffffffff 2e 800] ------- [46:255 -1:255 29 0] [0x2 2 1 [0 0] [40 4]] (REQUEST)
r 1.004097127 _47_ MAC  --- 0 AODV 48 [0 ffffffff 2e 800] ------- [46:255 -1:255 29 0] [0x2 2 1 [0 0] [40 4]] (REQUEST)
r 1.004097173 _17_ MAC  --- 0 AODV 48 [0 ffffffff 2e 800] ------- [46:255 -1:255 29 0] [0x2 2 1 [0 0] [40 4]] (REQUEST)
r 1.004097259 _40_ MAC  --- 0 AODV 48 [0 ffffffff 2e 800] ------- [46:255 -1:255 29 0] [0x2 2 1 [0 0] [40 4]] (REQUEST)
r 1.004097281 _10_ MAC  --- 0 AODV 48 [0 ffffffff 2e 800] ------- [46:255 -1:255 29 0] [0x2 2 1 [0 0] [40 4]] (REQUEST)
r 1.004097362 _45_ MAC  --- 0 AODV 48 [0 ffffffff 2e 800] ------- [46:255 -1:255 29 0] [0x2 2 1 [0 0] [40 4]] (REQUEST)
r 1.004097457 _37_ MAC  --- 0 AODV 48 [0 ffffffff 2e 800] ------- [46:255 -1:255 29 0] [0x2 2 1 [0 0] [40 4]] (REQUEST)
r 1.004097487 _44_ MAC  --- 0 AODV 48 [0 ffffffff 2e 800] ------- [46:255 -1:255 29 0] [0x2 2 1 [0 0] [40 4]] (REQUEST)
r 1.004122114 _16_ RTR  --- 0 AODV 48 [0 ffffffff 2e 800] ------- [46:255 -1:255 29 0] [0x2 2 1 [0 0] [40 4]] (REQUEST)
r 1.004122127 _47_ RTR  --- 0 AODV 48 [0 ffffffff 2e 800] ------- [46:255 -1:255 29 0] [0x2 2 1 [0 0] [40 4]] (REQUEST)
r 1.004122173 _17_ RTR  --- 0 AODV 48 [0 ffffffff 2e 800] ------- [46:255 -1:255 29 0] [0x2 2 1 [0 0] [40 4]] (REQUEST)
r 1.004122259 _40_ RTR  --- 0 AODV 48 [0 ffffffff 2e 800] ------- [46:255 -1:255 29 0] [0x2 2 1 [0 0] [40 4]] (REQUEST)
r 1.004122281 _10_ RTR  --- 0 AODV 48 [0 ffffffff 2e 800] ------- [46:255 -1:255 29 0] [0x2 2 1 [0 0] [40 4]] (REQUEST)
r 1.004122362 _45_ RTR  --- 0 AODV 48 [0 ffffffff 2e 800] ------- [46:255 -1:255 29 0] [0x2 2 1 [0 0] [40 4]] (REQUEST)
r 1.004122457 _37_ RTR  --- 0 AODV 48 [0 ffffffff 2e 800] ------- [46:255 -1:255 29 0] [0x2 2 1 [0 0] [40 4]] (REQUEST)
r 1.004122487 _44_ RTR  --- 0 AODV 48 [0 ffffffff 2e 800] ------- [46:255 -1:255 29 0] [0x2 2 1 [0 0] [40 4]] (REQUEST)
s 1.004550060 _16_ RTR  --- 0 AODV 48 [0 ffffffff 2e 800] ------- [16:255 -1:255 28 0] [0x2 3 1 [0 0] [40 4]] (REQUEST)
s 1.005105060 _16_ MAC  --- 0 AODV 106 [0 ffffffff 10 800] ------- [16:255 -1:255 28 0] [0x2 3 1 [0 0] [40 4]] (REQUEST)
s 1.005260445 _45_ RTR  --- 0 AODV 48 [0 ffffffff 2e 800] ------- [45:255 -1:255 28 0] [0x2 3 1 [0 0] [40 4]] (REQUEST)
s 1.005749953 _39_ RTR  --- 0 AODV 48 [0 ffffffff 1a 800] ------- [39:255 -1:255 28 0] [0x2 3 1 [0 0] [40 4]] (REQUEST)
s 1.005820305 _17_ RTR  --- 0 AODV 48 [0 ffffffff 28 800] ------- [17:255 -1:255 29 0] [0x2 2 1 [0 0] [40 4]] (REQUEST)
r 1.005953374 _45_ MAC  --- 0 AODV 48 [0 ffffffff 10 800] ------- [16:255 -1:255 28 0] [0x2 3 1 [0 0] [40 4]] (REQUEST)
r 1.005953464 _47_ MAC  --- 0 AODV 48 [0 ffffffff 10 800] ------- [16:255 -1:255 28 0] [0x2 3 1 [0 0] [40 4]] (REQUEST)
r 1.005953472 _46_ MAC  --- 0 AODV 48 [0 ffffffff 10 800] ------- [16:255 -1:255 28 0] [0x2 3 1 [0 0] [40 4]] (REQUEST)
r 1.005953524 _44_ MAC  --- 0 AODV 48 [0 ffffffff 10 800] ------- [16:255 -1:255 28 0] [0x2 3 1 [0 0] [40 4]] (REQUEST)
r 1.005953695 _27_ MAC  --- 0 AODV 48 [0 ffffffff 10 800] ------- [16:255 -1:255 28 0] [0x2 3 1 [0 0] [40 4]] (REQUEST)
r 1.005953761 _37_ MAC  --- 0 AODV 48 [0 ffffffff 10 800] ------- [16:255 -1:255 28 0] [0x2 3 1 [0 0] [40 4]] (REQUEST)
r 1.005953830 _17_ MAC  --- 0 AODV 48 [0 ffffffff 10 800] ------- [16:255 -1:255 28 0] [0x2 3 1 [0 0] [40 4]] (REQUEST)
r 1.005953832 _10_ MAC  --- 0 AODV 48 [0 ffffffff 10 800] ------- [16:255 -1:255 28 0] [0x2 3 1 [0 0] [40 4]] (REQUEST)
r 1.005978374 _45_ RTR  --- 0 AODV 48 [0 ffffffff 10 800] ------- [16:255 -1:255 28 0] [0x2 3 1 [0 0] [40 4]] (REQUEST)
r 1.005978464 _47_ RTR  --- 0 AODV 48 [0 ffffffff 10 800] ------- [16:255 -1:255 28 0] [0x2 3 1 [0 0] [40 4]] (REQUEST)
r 1.005978472 _46_ RTR  --- 0 AODV 48 [0 ffffffff 10 800] ------- [16:255 -1:255 28 0] [0x2 3 1 [0 0] [40 4]] (REQUEST)
r 1.005978524 _44_ RTR  --- 0 AODV 48 [0 ffffffff 10 800] ------- [16:255 -1:255 28 0] [0x2 3 1 [0 0] [40 4]] (REQUEST)
r 1.005978695 _27_ RTR  --- 0 AODV 48 [0 ffffffff 10 800] ------- [16:255 -1:255 28 0] [0x2 3 1 [0 0] [40 4]] (REQUEST)
r 1.005978761 _37_ RTR  --- 0 AODV 48 [0 ffffffff 10 800] ------- [16:255 -1:255 28 0] [0x2 3 1 [0 0] [40 4]] (REQUEST)
r 1.005978830 _17_ RTR  --- 0 AODV 48 [0 ffffffff 10 800] ------- [16:255 -1:255 28 0] [0x2 3 1 [0 0] [40 4]] (REQUEST)
r 1.005978832 _10_ RTR  --- 0 AODV 48 [0 ffffffff 10 800] ------- [16:255 -1:255 28 0] [0x2 3 1 [0 0] [40 4]] (REQUEST)
s 1.006144953 _39_ MAC  --- 0 AODV 106 [0 ffffffff 27 800] ------- [39:255 -1:255 28 0] [0x2 3 1 [0 0] [40 4]] (REQUEST)
s 1.006343374 _45_ MAC  --- 0 AODV 106 [0 ffffffff 2d 800] ------- [45:255 -1:255 28 0] [0x2 3 1 [0 0] [40 4]] (REQUEST)
r 1.006993314 _18_ MAC  --- 0 AODV 48 [0 ffffffff 27 800] ------- [39:255 -1:255 28 0] [0x2 3 1 [0 0] [40 4]] (REQUEST)
r 1.006993505 _19_ MAC  --- 0 AODV 48 [0 ffffffff 27 800] ------- [39:255 -1:255 28 0] [0x2 3 1 [0 0] [40 4]] (REQUEST)
r 1.006993516 _26_ MAC  --- 0 AODV 48 [0 ffffffff 27 800] ------- [39:255 -1:255 28 0] [0x2 3 1 [0 0] [40 4]] (REQUEST)
r 1.006993656 _38_ MAC  --- 0 AODV 48 [0 ffffffff 27 800] ------- [39:255 -1:255 28 0] [0x2 3 1 [0 0] [40 4]] (REQUEST)
r 1.007018314 _18_ RTR  --- 0 AODV 48 [0 ffffffff 27 800] ------- [39:255 -1:255 28 0] [0x2 3 1 [0 0] [40 4]] (REQUEST)
r 1.007018505 _19_ RTR  --- 0 AODV 48 [0 ffffffff 27 800] ------- [39:255 -1:255 28 0] [0x2 3 1 [0 0] [40 4]] (REQUEST)
r 1.007018516 _26_ RTR  --- 0 AODV 48 [0 ffffffff 27 800] ------- [39:255 -1:255 28 0] [0x2 3 1 [0 0] [40 4]] (REQUEST)
r 1.007018656 _38_ RTR  --- 0 AODV 48 [0 ffffffff 27 800] ------- [39:255 -1:255 28 0] [0x2 3 1 [0 0] [40 4]] (REQUEST)
r 1.007191689 _16_ MAC  --- 0 AODV 48 [0 ffffffff 2d 800] ------- [45:255 -1:255 28 0] [0x2 3 1 [0 0] [40 4]] (REQUEST)
r 1.007191842 _27_ MAC  --- 0 AODV 48 [0 ffffffff 2d 800] ------- [45:255 -1:255 28 0] [0x2 3 1 [0 0] [40 4]] (REQUEST)
r 1.007191976 _42_ MAC  --- 0 AODV 48 [0 ffffffff 2d 800] ------- [45:255 -1:255 28 0] [0x2 3 1 [0 0] [40 4]] (REQUEST)
r 1.007191990 _44_ MAC  --- 0 AODV 48 [0 ffffffff 2d 800] ------- [45:255 -1:255 28 0] [0x2 3 1 [0 0] [40 4]] (REQUEST)
r 1.007192013 _9_ MAC  --- 0 AODV 48 [0 ffffffff 2d 800] ------- [45:255 -1:255 28 0] [0x2 3 1 [0 0] [40 4]] (REQUEST)
D 1.007192035 _46_ MAC  COL 0 AODV 106 [0 ffffffff 2d 800] ------- [45:255 -1:255 28 0] [0x2 3 1 [0 0] [40 4]] (REQUEST)
D 1.007192088 _47_ MAC  COL 0 AODV 106 [0 ffffffff 2d 800] ------- [45:255 -1:255 28 0] [0x2 3 1 [0 0] [40 4]] (REQUEST)
D 1.007192171 _10_ MAC  COL 0 AODV 106 [0 ffffffff 2d 800] ------- [45:255 -1:255 28 0] [0x2 3 1 [0 0] [40 4]] (REQUEST)
r 1.007216689 _16_ RTR  --- 0 AODV 48 [0 ffffffff 2d 800] ------- [45:255 -1:255 28 0] [0x2 3 1 [0 0] [40 4]] (REQUEST)
r 1.007216842 _27_ RTR  --- 0 AODV 48 [0 ffffffff 2d 800] ------- [45:255 -1:255 28 0] [0x2 3 1 [0 0] [40 4]] (REQUEST)
r 1.007216976 _42_ RTR  --- 0 AODV 48 [0 ffffffff 2d 800] ------- [45:255 -1:255 28 0] [0x2 3 1 [0 0] [40 4]] (REQUEST)
r 1.007216990 _44_ RTR  --- 0 AODV 48 [0 ffffffff 2d 800] ------- [45:255 -1:255 28 0] [0x2 3 1 [0 0] [40 4]] (REQUEST)
r 1.007217013 _9_ RTR  --- 0 AODV 48 [0 ffffffff 2d 800] ------- [45:255 -1:255 28 0] [0x2 3 1 [0 0] [40 4]] (REQUEST)
s 1.007666447 _17_ MAC  --- 0 AODV 106 [0 ffffffff 11 800] ------- [17:255 -1:255 29 0] [0x2 2 1 [0 0] [40 4]] (REQUEST)
s 1.008359054 _44_ RTR  --- 0 AODV 48 [0 ffffffff 2e 800] ------- [44:255 -1:255 28 0] [0x2 3 1 [0 0] [40 4]] (REQUEST)
r 1.008514919 _46_ MAC  --- 0 AODV 48 [0 ffffffff 11 800] ------- [17:255 -1:255 29 0] [0x2 2 1 [0 0] [40 4]] (REQUEST)
r 1.008514920 _47_ MAC  --- 0 AODV 48 [0 ffffffff 11 800] ------- [17:255 -1:255 29 0] [0x2 2 1 [0 0] [40 4]] (REQUEST)
r 1.008514972 _25_ MAC  --- 0 AODV 48 [0 ffffffff 11 800] ------- [17:255 -1:255 29 0] [0x2 2 1 [0 0] [40 4]] (REQUEST)
r 1.008515019 _40_ MAC  --- 0 AODV 48 [0 ffffffff 11 800] ------- [17:255 -1:255 29 0] [0x2 2 1 [0 0] [40 4]] (REQUEST)
r 1.008515065 _37_ MAC  --- 0 AODV 48 [0 ffffffff 11 800] ------- [17:255 -1:255 29 0] [0x2 2 1 [0 0] [40 4]] (REQUEST)
r 1.008515146 _35_ MAC  --- 0 AODV 48 [0 ffffffff 11 800] ------- [17:255 -1:255 29 0] [0x2 2 1 [0 0] [40 4]] (REQUEST)
r 1.008515217 _16_ MAC  --- 0 AODV 48 [0 ffffffff 11 800] ------- [17:255 -1:255 29 0] [0x2 2 1 [0 0] [40 4]] (REQUEST)
r 1.008539919 _46_ RTR  --- 0 AODV 48 [0 ffffffff 11 800] ------- [17:255 -1:255 29 0] [0x2 2 1 [0 0] [40 4]] (REQUEST)
r 1.008539920 _47_ RTR  --- 0 AODV 48 [0 ffffffff 11 800] ------- [17:255 -1:255 29 0] [0x2 2 1 [0 0] [40 4]] (REQUEST)
r 1.008539972 _25_ RTR  --- 0 AODV 48 [0 ffffffff 11 800] ------- [17:255 -1:255 29 0] [0x2 2 1 [0 0] [40 4]] (REQUEST)
r 1.008540019 _40_ RTR  --- 0 AODV 48 [0 ffffffff 11 800] ------- [17:255 -1:255 29 0] [0x2 2 1 [0 0] [40 4]] (REQUEST)
r 1.008540065 _37_ RTR  --- 0 AODV 48 [0 ffffffff 11 800] ------- [17:255 -1:255 29 0] [0x2 2 1 [0 0] [40 4]] (REQUEST)
r 1.008540146 _35_ RTR  --- 0 AODV 48 [0 ffffffff 11 800] ------- [17:255 -1:255 29 0] [0x2 2 1 [0 0] [40 4]] (REQUEST)
r 1.008540217 _16_ RTR  --- 0 AODV 48 [0 ffffffff 11 800] ------- [17:255 -1:255 29 0] [0x2 2 1 [0 0] [40 4]] (REQUEST)
s 1.009047667 _18_ RTR  --- 0 AODV 48 [0 ffffffff 1a 800] ------- [18:255 -1:255 28 0] [0x2 3 1 [0 0] [40 4]] (REQUEST)
s 1.009262667 _18_ MAC  --- 0 AODV 106 [0 ffffffff 12 800] ------- [18:255 -1:255 28 0] [0x2 3 1 [0 0] [40 4]] (REQUEST)
s 1.009289383 _44_ MAC  --- 0 AODV 106 [0 ffffffff 2c 800] ------- [44:255 -1:255 28 0] [0x2 3 1 [0 0] [40 4]] (REQUEST)
s 1.009388608 _9_ RTR  --- 0 AODV 48 [0 ffffffff 2d 800] ------- [9:255 -1:255 27 0] [0x2 4 1 [0 0] [40 4]] (REQUEST)
s 1.009400213 _10_ RTR  --- 0 AODV 48 [0 ffffffff 28 800] ------- [10:255 -1:255 29 0] [0x2 2 1 [0 0] [40 4]] (REQUEST)
s 1.010065551 _27_ RTR  --- 0 AODV 48 [0 ffffffff 10 800] ------- [27:255 -1:255 27 0] [0x2 4 1 [0 0] [40 4]] (REQUEST)
r 1.010111028 _39_ MAC  --- 0 AODV 48 [0 ffffffff 12 800] ------- [18:255 -1:255 28 0] [0x2 3 1 [0 0] [40 4]] (REQUEST)
r 1.010111083 _26_ MAC  --- 0 AODV 48 [0 ffffffff 12 800] ------- [18:255 -1:255 28 0] [0x2 3 1 [0 0] [40 4]] (REQUEST)
r 1.010111403 _41_ MAC  --- 0 AODV 48 [0 ffffffff 12 800] ------- [18:255 -1:255 28 0] [0x2 3 1 [0 0] [40 4]] (REQUEST)
r 1.010136028 _39_ RTR  --- 0 AODV 48 [0 ffffffff 12 800] ------- [18:255 -1:255 28 0] [0x2 3 1 [0 0] [40 4]] (REQUEST)
r 1.010136083 _26_ RTR  --- 0 AODV 48 [0 ffffffff 12 800] ------- [18:255 -1:255 28 0] [0x2 3 1 [0 0] [40 4]] (REQUEST)
r 1.010136403 _41_ RTR  --- 0 AODV 48 [0 ffffffff 12 800] ------- [18:255 -1:255 28 0] [0x2 3 1 [0 0] [40 4]] (REQUEST)
r 1.010137848 _16_ MAC  --- 0 AODV 48 [0 ffffffff 2c 800] ------- [44:255 -1:255 28 0] [0x2 3 1 [0 0] [40 4]] (REQUEST)
D 1.010137848 _47_ MAC  COL 0 AODV 106 [0 ffffffff 2c 800] ------- [44:255 -1:255 28 0] [0x2 3 1 [0 0] [40 4]] (REQUEST)
r 1.010137888 _37_ MAC  --- 0 AODV 48 [0 ffffffff 2c 800] ------- [44:255 -1:255 28 0] [0x2 3 1 [0 0] [40 4]] (REQUEST)
r 1.010137936 _27_ MAC  --- 0 AODV 48 [0 ffffffff 2c 800] ------- [44:255 -1:255 28 0] [0x2 3 1 [0 0] [40 4]] (REQUEST)
r 1.010137999 _45_ MAC  --- 0 AODV 48 [0 ffffffff 2c 800] ------- [44:255 -1:255 28 0] [0x2 3 1 [0 0] [40 4]] (REQUEST)
r 1.010138005 _36_ MAC  --- 0 AODV 48 [0 ffffffff 2c 800] ------- [44:255 -1:255 28 0] [0x2 3 1 [0 0] [40 4]] (REQUEST)
D 1.010138168 _46_ MAC  COL 0 AODV 106 [0 ffffffff 2c 800] ------- [44:255 -1:255 28 0] [0x2 3 1 [0 0] [40 4]] (REQUEST)
r 1.010138177 _23_ MAC  --- 0 AODV 48 [0 ffffffff 2c 800] ------- [44:255 -1:255 28 0] [0x2 3 1 [0 0] [40 4]] (REQUEST)
r 1.010138184 _24_ MAC  --- 0 AODV 48 [0 ffffffff 2c 800] ------- [44:255 -1:255 28 0] [0x2 3 1 [0 0] [40 4]] (REQUEST)
r 1.010162848 _16_ RTR  --- 0 AODV 48 [0 ffffffff 2c 800] ------- [44:255 -1:255 28 0] [0x2 3 1 [0 0] [40 4]] (REQUEST)
r 1.010162888 _37_ RTR  --- 0 AODV 48 [0 ffffffff 2c 800] ------- [44:255 -1:255 28 0] [0x2 3 1 [0 0] [40 4]] (REQUEST)
r 1.010162936 _27_ RTR  --- 0 AODV 48 [0 ffffffff 2c 800] ------- [44:255 -1:255 28 0] [0x2 3 1 [0 0] [40 4]] (REQUEST)
r 1.010162999 _45_ RTR  --- 0 AODV 48 [0 ffffffff 2c 800] ------- [44:255 -1:255 28 0] [0x2 3 1 [0 0] [40 4]] (REQUEST)
r 1.010163005 _36_ RTR  --- 0 AODV 48 [0 ffffffff 2c 800] ------- [44:255 -1:255 28 0] [0x2 3 1 [0 0] [40 4]] (REQUEST)
r 1.010163177 _23_ RTR  --- 0 AODV 48 [0 ffffffff 2c 800] ------- [44:255 -1:255 28 0] [0x2 3 1 [0 0] [40 4]] (REQUEST)
r 1.010163184 _24_ RTR  --- 0 AODV 48 [0 ffffffff 2c 800] ------- [44:255 -1:255 28 0] [0x2 3 1 [0 0] [40 4]] (REQUEST)
s 1.010387936 _27_ MAC  --- 0 AODV 106 [0 ffffffff 1b 800] ------- [27:255 -1:255 27 0] [0x2 4 1 [0 0] [40 4]] (REQUEST)
s 1.010522803 _47_ RTR  --- 0 AODV 48 [0 ffffffff 2e 800] ------- [47:255 -1:255 28 0] [0x2 3 1 [0 0] [40 4]] (REQUEST)
s 1.011022550 _41_ RTR  --- 0 AODV 48 [0 ffffffff 1a 800] ------- [41:255 -1:255 28 0] [0x2 3 1 [0 0] [40 4]] (REQUEST)
s 1.011217550 _41_ MAC  --- 0 AODV 106 [0 ffffffff 29 800] ------- [41:255 -1:255 28 0] [0x2 3 1 [0 0] [40 4]] (REQUEST)
r 1.011236373 _23_ MAC  --- 0 AODV 48 [0 ffffffff 1b 800] ------- [27:255 -1:255 27 0] [0x2 4 1 [0 0] [40 4]] (REQUEST)
r 1.011236404 _45_ MAC  --- 0 AODV 48 [0 ffffffff 1b 800] ------- [27:255 -1:255 27 0] [0x2 4 1 [0 0] [40 4]] (REQUEST)
r 1.011236489 _44_ MAC  --- 0 AODV 48 [0 ffffffff 1b 800] ------- [27:255 -1:255 27 0] [0x2 4 1 [0 0] [40 4]] (REQUEST)
r 1.011236571 _16_ MAC  --- 0 AODV 48 [0 ffffffff 1b 800] ------- [27:255 -1:255 27 0] [0x2 4 1 [0 0] [40 4]] (REQUEST)
r 1.011236598 _42_ MAC  --- 0 AODV 48 [0 ffffffff 1b 800] ------- [27:255 -1:255 27 0] [0x2 4 1 [0 0] [40 4]] (REQUEST)
r 1.011236679 _34_ MAC  --- 0 AODV 48 [0 ffffffff 1b 800] ------- [27:255 -1:255 27 0] [0x2 4 1 [0 0] [40 4]] (REQUEST)
r 1.011261373 _23_ RTR  --- 0 AODV 48 [0 ffffffff 1b 800] ------- [27:255 -1:255 27 0] [0x2 4 1 [0 0] [40 4]] (REQUEST)
r 1.011261404 _45_ RTR  --- 0 AODV 48 [0 ffffffff 1b 800] ------- [27:255 -1:255 27 0] [0x2 4 1 [0 0] [40 4]] (REQUEST)
r 1.011261489 _44_ RTR  --- 0 AODV 48 [0 ffffffff 1b 800] ------- [27:255 -1:255 27 0] [0x2 4 1 [0 0] [40 4]] (REQUEST)
r 1.011261571 _16_ RTR  --- 0 AODV 48 [0 ffffffff 1b 800] ------- [27:255 -1:255 27 0] [0x2 4 1 [0 0] [40 4]] (REQUEST)
r 1.011261598 _42_ RTR  --- 0 AODV 48 [0 ffffffff 1b 800] ------- [27:255 -1:255 27 0] [0x2 4 1 [0 0] [40 4]] (REQUEST)
r 1.011261679 _34_ RTR  --- 0 AODV 48 [0 ffffffff 1b 800] ------- [27:255 -1:255 27 0] [0x2 4 1 [0 0] [40 4]] (REQUEST)
s 1.011283497 _24_ RTR  --- 0 AODV 48 [0 ffffffff 2c 800] ------- [24:255 -1:255 27 0] [0x2 4 1 [0 0] [40 4]] (REQUEST)
s 1.011679665 _19_ RTR  --- 0 AODV 48 [0 ffffffff 27 800] ------- [19:255 -1:255 27 0] [0x2 4 1 [0 0] [40 4]] (REQUEST)
s 1.011710852 _47_ MAC  --- 0 AODV 106 [0 ffffffff 2f 800] ------- [47:255 -1:255 28 0] [0x2 3 1 [0 0] [40 4]] (REQUEST)
r 1.012065875 _13_ MAC  --- 0 AODV 48 [0 ffffffff 29 800] ------- [41:255 -1:255 28 0] [0x2 3 1 [0 0] [40 4]] (REQUEST)
r 1.012066266 _26_ MAC  --- 0 AODV 48 [0 ffffffff 29 800] ------- [41:255 -1:255 28 0] [0x2 3 1 [0 0] [40 4]] (REQUEST)
r 1.012066282 _11_ MAC  --- 0 AODV 48 [0 ffffffff 29 800] ------- [41:255 -1:255 28 0] [0x2 3 1 [0 0] [40 4]] (REQUEST)
r 1.012066286 _18_ MAC  --- 0 AODV 48 [0 ffffffff 29 800] ------- [41:255 -1:255 28 0] [0x2 3 1 [0 0] [40 4]] (REQUEST)
r 1.012090875 _13_ RTR  --- 0 AODV 48 [0 ffffffff 29 800] ------- [41:255 -1:255 28 0] [0x2 3 1 [0 0] [40 4]] (REQUEST)
r 1.012091266 _26_ RTR  --- 0 AODV 48 [0 ffffffff 29 800] ------- [41:255 -1:255 28 0] [0x2 3 1 [0 0] [40 4]] (REQUEST)
r 1.012091282 _11_ RTR  --- 0 AODV 48 [0 ffffffff 29 800] ------- [41:255 -1:255 28 0] [0x2 3 1 [0 0] [40 4]] (REQUEST)
r 1.012091286 _18_ RTR  --- 0 AODV 48 [0 ffffffff 29 800] ------- [41:255 -1:255 28 0] [0x2 3 1 [0 0] [40 4]] (REQUEST)
r 1.012559194 _37_ MAC  --- 0 AODV 48 [0 ffffffff 2f 800] ------- [47:255 -1:255 28 0] [0x2 3 1 [0 0] [40 4]] (REQUEST)
r 1.012559256 _16_ MAC  --- 0 AODV 48 [0 ffffffff 2f 800] ------- [47:255 -1:255 28 0] [0x2 3 1 [0 0] [40 4]] (REQUEST)
D 1.012559277 _46_ MAC  COL 0 AODV 106 [0 ffffffff 2f 800] ------- [47:255 -1:255 28 0] [0x2 3 1 [0 0] [40 4]] (REQUEST)
r 1.012559317 _44_ MAC  --- 0 AODV 48 [0 ffffffff 2f 800] ------- [47:255 -1:255 28 0] [0x2 3 1 [0 0] [40 4]] (REQUEST)
D 1.012559325 _17_ MAC  COL 0 AODV 106 [0 ffffffff 2f 800] ------- [47:255 -1:255 28 0] [0x2 3 1 [0 0] [40 4]] (REQUEST)
r 1.012559566 _45_ MAC  --- 0 AODV 48 [0 ffffffff 2f 800] ------- [47:255 -1:255 28 0] [0x2 3 1 [0 0] [40 4]] (REQUEST)
r 1.012559658 _36_ MAC  --- 0 AODV 48 [0 ffffffff 2f 800] ------- [47:255 -1:255 28 0] [0x2 3 1 [0 0] [40 4]] (REQUEST)
r 1.012584194 _37_ RTR  --- 0 AODV 48 [0 ffffffff 2f 800] ------- [47:255 -1:255 28 0] [0x2 3 1 [0 0] [40 4]] (REQUEST)
r 1.012584256 _16_ RTR  --- 0 AODV 48 [0 ffffffff 2f 800] ------- [47:255 -1:255 28 0] [0x2 3 1 [0 0] [40 4]] (REQUEST)
r 1.012584317 _44_ RTR  --- 0 AODV 48 [0 ffffffff 2f 800] ------- [47:255 -1:255 28 0] [0x2 3 1 [0 0] [40 4]] (REQUEST)
r 1.012584566 _45_ RTR  --- 0 AODV 48 [0 ffffffff 2f 800] ------- [47:255 -1:255 28 0] [0x2 3 1 [0 0] [40 4]] (REQUEST)
r 1.012584658 _36_ RTR  --- 0 AODV 48 [0 ffffffff 2f 800] ------- [47:255 -1:255 28 0] [0x2 3 1 [0 0] [40 4]] (REQUEST)
s 1.012661176 _19_ MAC  --- 0 AODV 106 [0 ffffffff 13 800] ------- [19:255 -1:255 27 0] [0x2 4 1 [0 0] [40 4]] (REQUEST)
s 1.012719734 _37_ RTR  --- 0 AODV 48 [0 ffffffff 2e 800] ------- [37:255 -1:255 28 0] [0x2 3 1 [0 0] [40 4]] (REQUEST)
s 1.012994153 _9_ MAC  --- 0 AODV 106 [0 ffffffff 9 800] ------- [9:255 -1:255 27 0] [0x2 4 1 [0 0] [40 4]] (REQUEST)
s 1.013194071 _24_ MAC  --- 0 AODV 106 [0 ffffffff 18 800] ------- [24:255 -1:255 27 0] [0x2 4 1 [0 0] [40 4]] (REQUEST)
r 1.013509684 _38_ MAC  --- 0 AODV 48 [0 ffffffff 13 800] ------- [19:255 -1:255 27 0] [0x2 4 1 [0 0] [40 4]] (REQUEST)
r 1.013509728 _39_ MAC  --- 0 AODV 48 [0 ffffffff 13 800] ------- [19:255 -1:255 27 0] [0x2 4 1 [0 0] [40 4]] (REQUEST)
r 1.013534684 _38_ RTR  --- 0 AODV 48 [0 ffffffff 13 800] ------- [19:255 -1:255 27 0] [0x2 4 1 [0 0] [40 4]] (REQUEST)
r 1.013534728 _39_ RTR  --- 0 AODV 48 [0 ffffffff 13 800] ------- [19:255 -1:255 27 0] [0x2 4 1 [0 0] [40 4]] (REQUEST)
r 1.013842551 _42_ MAC  --- 0 AODV 48 [0 ffffffff 9 800] ------- [9:255 -1:255 27 0] [0x2 4 1 [0 0] [40 4]] (REQUEST)
r 1.013842792 _45_ MAC  --- 0 AODV 48 [0 ffffffff 9 800] ------- [9:255 -1:255 27 0] [0x2 4 1 [0 0] [40 4]] (REQUEST)
r 1.013842916 _8_ MAC  --- 0 AODV 48 [0 ffffffff 9 800] ------- [9:255 -1:255 27 0] [0x2 4 1 [0 0] [40 4]] (REQUEST)
r 1.013842953 _10_ MAC  --- 0 AODV 48 [0 ffffffff 9 800] ------- [9:255 -1:255 27 0] [0x2 4 1 [0 0] [40 4]] (REQUEST)
r 1.013867551 _42_ RTR  --- 0 AODV 48 [0 ffffffff 9 800] ------- [9:255 -1:255 27 0] [0x2 4 1 [0 0] [40 4]] (REQUEST)
r 1.013867792 _45_ RTR  --- 0 AODV 48 [0 ffffffff 9 800] ------- [9:255 -1:255 27 0] [0x2 4 1 [0 0] [40 4]] (REQUEST)
r 1.013867916 _8_ RTR  --- 0 AODV 48 [0 ffffffff 9 800] ------- [9:255 -1:255 27 0] [0x2 4 1 [0 0] [40 4]] (REQUEST)
r 1.013867953 _10_ RTR  --- 0 AODV 48 [0 ffffffff 9 800] ------- [9:255 -1:255 27 0] [0x2 4 1 [0 0] [40 4]] (REQUEST)
s 1.013941724 _38_ RTR  --- 0 AODV 48 [0 ffffffff 27 800] ------- [38:255 -1:255 27 0] [0x2 4 1 [0 0] [40 4]] (REQUEST)
r 1.014042493 _20_ MAC  --- 0 AODV 48 [0 ffffffff 18 800] ------- [24:255 -1:255 27 0] [0x2 4 1 [0 0] [40 4]] (REQUEST)
r 1.014042522 _31_ MAC  --- 0 AODV 48 [0 ffffffff 18 800] ------- [24:255 -1:255 27 0] [0x2 4 1 [0 0] [40 4]] (REQUEST)
D 1.014042668 _32_ MAC  COL 0 AODV 106 [0 ffffffff 18 800] ------- [24:255 -1:255 27 0] [0x2 4 1 [0 0] [40 4]] (REQUEST)
r 1.014042722 _36_ MAC  --- 0 AODV 48 [0 ffffffff 18 800] ------- [24:255 -1:255 27 0] [0x2 4 1 [0 0] [40 4]] (REQUEST)
D 1.014042774 _23_ MAC  COL 0 AODV 106 [0 ffffffff 18 800] ------- [24:255 -1:255 27 0] [0x2 4 1 [0 0] [40 4]] (REQUEST)
D 1.014042871 _44_ MAC  COL 0 AODV 106 [0 ffffffff 18 800] ------- [24:255 -1:255 27 0] [0x2 4 1 [0 0] [40 4]] (REQUEST)
r 1.014067493 _20_ RTR  --- 0 AODV 48 [0 ffffffff 18 800] ------- [24:255 -1:255 27 0] [0x2 4 1 [0 0] [40 4]] (REQUEST)
r 1.014067522 _31_ RTR  --- 0 AODV 48 [0 ffffffff 18 800] ------- [24:255 -1:255 27 0] [0x2 4 1 [0 0] [40 4]] (REQUEST)
r 1.014067722 _36_ RTR  --- 0 AODV 48 [0 ffffffff 18 800] ------- [24:255 -1:255 27 0] [0x2 4 1 [0 0] [40 4]] (REQUEST)
s 1.014143491 _8_ RTR  --- 0 AODV 48 [0 ffffffff 9 800] ------- [8:255 -1:255 26 0] [0x2 5 1 [0 0] [40 4]] (REQUEST)
s 1.014152953 _10_ MAC  --- 0 AODV 106 [0 ffffffff a 800] ------- [10:255 -1:255 29 0] [0x2 2 1 [0 0] [40 4]] (REQUEST)
s 1.014316724 _38_ MAC  --- 0 AODV 106 [0 ffffffff 26 800] ------- [38:255 -1:255 27 0] [0x2 4 1 [0 0] [40 4]] (REQUEST)
s 1.014618307 _34_ RTR  --- 0 AODV 48 [0 ffffffff 1b 800] ------- [34:255 -1:255 26 0] [0x2 5 1 [0 0] [40 4]] (REQUEST)
s 1.014713307 _34_ MAC  --- 0 AODV 106 [0 ffffffff 22 800] ------- [34:255 -1:255 26 0] [0x2 5 1 [0 0] [40 4]] (REQUEST)
D 1.014714459 _45_ MAC  COL 0 AODV 106 [0 ffffffff a 800] ------- [10:255 -1:255 29 0] [0x2 2 1 [0 0] [40 4]] (REQUEST)
D 1.014714620 _9_ MAC  COL 0 AODV 106 [0 ffffffff a 800] ------- [10:255 -1:255 29 0] [0x2 2 1 [0 0] [40 4]] (REQUEST)
r 1.015001532 _46_ MAC  --- 0 AODV 48 [0 ffffffff a 800] ------- [10:255 -1:255 29 0] [0x2 2 1 [0 0] [40 4]] (REQUEST)
r 1.015001612 _40_ MAC  --- 0 AODV 48 [0 ffffffff a 800] ------- [10:255 -1:255 29 0] [0x2 2 1 [0 0] [40 4]] (REQUEST)
r 1.015001725 _16_ MAC  --- 0 AODV 48 [0 ffffffff a 800] ------- [10:255 -1:255 29 0] [0x2 2 1 [0 0] [40 4]] (REQUEST)
r 1.015001736 _11_ MAC  --- 0 AODV 48 [0 ffffffff a 800] ------- [10:255 -1:255 29 0] [0x2 2 1 [0 0] [40 4]] (REQUEST)
r 1.015026532 _46_ RTR  --- 0 AODV 48 [0 ffffffff a 800] ------- [10:255 -1:255 29 0] [0x2 2 1 [0 0] [40 4]] (REQUEST)
r 1.015026612 _40_ RTR  --- 0 AODV 48 [0 ffffffff a 800] ------- [10:255 -1:255 29 0] [0x2 2 1 [0 0] [40 4]] (REQUEST)
r 1.015026725 _16_ RTR  --- 0 AODV 48 [0 ffffffff a 800] ------- [10:255 -1:255 29 0] [0x2 2 1 [0 0] [40 4]] (REQUEST)
r 1.015026736 _11_ RTR  --- 0 AODV 48 [0 ffffffff a 800] ------- [10:255 -1:255 29 0] [0x2 2 1 [0 0] [40 4]] (REQUEST)
r 1.015165232 _19_ MAC  --- 0 AODV 48 [0 ffffffff 26 800] ------- [38:255 -1:255 27 0] [0x2 4 1 [0 0] [40 4]] (REQUEST)
D 1.015165355 _25_ MAC  COL 0 AODV 106 [0 ffffffff 26 800] ------- [38:255 -1:255 27 0] [0x2 4 1 [0 0] [40 4]] (REQUEST)
D 1.015165427 _39_ MAC  COL 0 AODV 106 [0 ffffffff 26 800] ------- [38:255 -1:255 27 0] [0x2 4 1 [0 0] [40 4]] (REQUEST)
r 1.015190232 _19_ RTR  --- 0 AODV 48 [0 ffffffff 26 800] ------- [38:255 -1:255 27 0] [0x2 4 1 [0 0] [40 4]] (REQUEST)
s 1.015313462 _25_ RTR  --- 0 AODV 48 [0 ffffffff 11 800] ------- [25:255 -1:255 28 0] [0x2 3 1 [0 0] [40 4]] (REQUEST)
D 1.015561784 _23_ MAC  COL 0 AODV 106 [0 ffffffff 22 800] ------- [34:255 -1:255 26 0] [0x2 5 1 [0 0] [40 4]] (REQUEST)
r 1.015561789 _28_ MAC  --- 0 AODV 48 [0 ffffffff 22 800] ------- [34:255 -1:255 26 0] [0x2 5 1 [0 0] [40 4]] (REQUEST)
r 1.015561958 _32_ MAC  --- 0 AODV 48 [0 ffffffff 22 800] ------- [34:255 -1:255 26 0] [0x2 5 1 [0 0] [40 4]] (REQUEST)
r 1.015561979 _6_ MAC  --- 0 AODV 48 [0 ffffffff 22 800] ------- [34:255 -1:255 26 0] [0x2 5 1 [0 0] [40 4]] (REQUEST)
D 1.015562050 _27_ MAC  COL 0 AODV 106 [0 ffffffff 22 800] ------- [34:255 -1:255 26 0] [0x2 5 1 [0 0] [40 4]] (REQUEST)
r 1.015562051 _43_ MAC  --- 0 AODV 48 [0 ffffffff 22 800] ------- [34:255 -1:255 26 0] [0x2 5 1 [0 0] [40 4]] (REQUEST)
r 1.015586789 _28_ RTR  --- 0 AODV 48 [0 ffffffff 22 800] ------- [34:255 -1:255 26 0] [0x2 5 1 [0 0] [40 4]] (REQUEST)
r 1.015586958 _32_ RTR  --- 0 AODV 48 [0 ffffffff 22 800] ------- [34:255 -1:255 26 0] [0x2 5 1 [0 0] [40 4]] (REQUEST)
r 1.015586979 _6_ RTR  --- 0 AODV 48 [0 ffffffff 22 800] ------- [34:255 -1:255 26 0] [0x2 5 1 [0 0] [40 4]] (REQUEST)
r 1.015587051 _43_ RTR  --- 0 AODV 48 [0 ffffffff 22 800] ------- [34:255 -1:255 26 0] [0x2 5 1 [0 0] [40 4]] (REQUEST)
s 1.015615228 _42_ RTR  --- 0 AODV 48 [0 ffffffff 2d 800] ------- [42:255 -1:255 27 0] [0x2 4 1 [0 0] [40 4]] (REQUEST)
s 1.015699355 _25_ MAC  --- 0 AODV 106 [0 ffffffff 19 800] ------- [25:255 -1:255 28 0] [0x2 3 1 [0 0] [40 4]] (REQUEST)
s 1.016076225 _42_ MAC  --- 0 AODV 106 [0 ffffffff 2a 800] ------- [42:255 -1:255 27 0] [0x2 4 1 [0 0] [40 4]] (REQUEST)
s 1.016088292 _32_ RTR  --- 0 AODV 48 [0 ffffffff 22 800] ------- [32:255 -1:255 25 0] [0x2 6 1 [0 0] [40 4]] (REQUEST)
s 1.016162465 _35_ RTR  --- 0 AODV 48 [0 ffffffff 11 800] ------- [35:255 -1:255 28 0] [0x2 3 1 [0 0] [40 4]] (REQUEST)
r 1.016547865 _35_ MAC  --- 0 AODV 48 [0 ffffffff 19 800] ------- [25:255 -1:255 28 0] [0x2 3 1 [0 0] [40 4]] (REQUEST)
r 1.016547879 _17_ MAC  --- 0 AODV 48 [0 ffffffff 19 800] ------- [25:255 -1:255 28 0] [0x2 3 1 [0 0] [40 4]] (REQUEST)
r 1.016547985 _38_ MAC  --- 0 AODV 48 [0 ffffffff 19 800] ------- [25:255 -1:255 28 0] [0x2 3 1 [0 0] [40 4]] (REQUEST)
r 1.016572865 _35_ RTR  --- 0 AODV 48 [0 ffffffff 19 800] ------- [25:255 -1:255 28 0] [0x2 3 1 [0 0] [40 4]] (REQUEST)
r 1.016572879 _17_ RTR  --- 0 AODV 48 [0 ffffffff 19 800] ------- [25:255 -1:255 28 0] [0x2 3 1 [0 0] [40 4]] (REQUEST)
r 1.016572985 _38_ RTR  --- 0 AODV 48 [0 ffffffff 19 800] ------- [25:255 -1:255 28 0] [0x2 3 1 [0 0] [40 4]] (REQUEST)
s 1.016857865 _35_ MAC  --- 0 AODV 106 [0 ffffffff 23 800] ------- [35:255 -1:255 28 0] [0x2 3 1 [0 0] [40 4]] (REQUEST)
r 1.016924623 _9_ MAC  --- 0 AODV 48 [0 ffffffff 2a 800] ------- [42:255 -1:255 27 0] [0x2 4 1 [0 0] [40 4]] (REQUEST)
D 1.016924827 _45_ MAC  COL 0 AODV 106 [0 ffffffff 2a 800] ------- [42:255 -1:255 27 0] [0x2 4 1 [0 0] [40 4]] (REQUEST)
r 1.016924887 _27_ MAC  --- 0 AODV 48 [0 ffffffff 2a 800] ------- [42:255 -1:255 27 0] [0x2 4 1 [0 0] [40 4]] (REQUEST)
r 1.016925015 _8_ MAC  --- 0 AODV 48 [0 ffffffff 2a 800] ------- [42:255 -1:255 27 0] [0x2 4 1 [0 0] [40 4]] (REQUEST)
r 1.016949623 _9_ RTR  --- 0 AODV 48 [0 ffffffff 2a 800] ------- [42:255 -1:255 27 0] [0x2 4 1 [0 0] [40 4]] (REQUEST)
r 1.016949887 _27_ RTR  --- 0 AODV 48 [0 ffffffff 2a 800] ------- [42:255 -1:255 27 0] [0x2 4 1 [0 0] [40 4]] (REQUEST)
r 1.016950015 _8_ RTR  --- 0 AODV 48 [0 ffffffff 2a 800] ------- [42:255 -1:255 27 0] [0x2 4 1 [0 0] [40 4]] (REQUEST)
s 1.017155015 _8_ MAC  --- 0 AODV 106 [0 ffffffff 8 800] ------- [8:255 -1:255 26 0] [0x2 5 1 [0 0] [40 4]] (REQUEST)
s 1.017419621 _32_ MAC  --- 0 AODV 106 [0 ffffffff 20 800] ------- [32:255 -1:255 25 0] [0x2 6 1 [0 0] [40 4]] (REQUEST)
D 1.017421016 _42_ MAC  COL 0 AODV 106 [0 ffffffff 8 800] ------- [8:255 -1:255 26 0] [0x2 5 1 [0 0] [40 4]] (REQUEST)
s 1.017539501 _11_ RTR  --- 0 AODV 48 [0 ffffffff 29 800] ------- [11:255 -1:255 27 0] [0x2 4 1 [0 0] [40 4]] (REQUEST)
r 1.017706374 _25_ MAC  --- 0 AODV 48 [0 ffffffff 23 800] ------- [35:255 -1:255 28 0] [0x2 3 1 [0 0] [40 4]] (REQUEST)
D 1.017706503 _37_ MAC  COL 0 AODV 106 [0 ffffffff 23 800] ------- [35:255 -1:255 28 0] [0x2 3 1 [0 0] [40 4]] (REQUEST)
r 1.017706563 _17_ MAC  --- 0 AODV 48 [0 ffffffff 23 800] ------- [35:255 -1:255 28 0] [0x2 3 1 [0 0] [40 4]] (REQUEST)
r 1.017731374 _25_ RTR  --- 0 AODV 48 [0 ffffffff 23 800] ------- [35:255 -1:255 28 0] [0x2 3 1 [0 0] [40 4]] (REQUEST)