s -t 1.000000000 -Hs 40 -Hd -2 -Ni 40 -Nx 1474.00 -Ny 516.00 -Nz 0.00 -Ne -1.000000 -Nl AGT -Nw --- -Ma 0 -Md 0 -Ms 0 -Mt 0 -Is 40.0 -Id 0.0 -It cbr -Il 1000 -If 0 -Ii 0 -Iv 32 -Pn cbr -Pi 0 -Pf 0 -Po 0 
r -t 1.000000000 -Hs 40 -Hd -2 -Ni 40 -Nx 1474.00 -Ny 516.00 -Nz 0.00 -Ne -1.000000 -Nl RTR -Nw --- -Ma 0 -Md 0 -Ms 0 -Mt 0 -Is 40.0 -Id 0.0 -It cbr -Il 1000 -If 0 -Ii 0 -Iv 32 -Pn cbr -Pi 0 -Pf 0 -Po 0 
s -t 1.000000000 -Hs 40 -Hd -2 -Ni 40 -Nx 1474.00 -Ny 516.00 -Nz 0.00 -Ne -1.000000 -Nl RTR -Nw --- -Ma 0 -Md 0 -Ms 0 -Mt 0 -Is 40.255 -Id -1.255 -It AODV -Il 48 -If 0 -Ii 0 -Iv 30 -P aodv -Pt 0x2 -Ph 1 -Pb 1 -Pd 0 -Pds 0 -Ps 40 -Pss 4 -Pc REQUEST 
s -t 1.000535000 -Hs 40 -Hd -2 -Ni 40 -Nx 1474.00 -Ny 516.00 -Nz 0.00 -Ne -1.000000 -Nl MAC -Nw --- -Ma 0 -Md ffffffff -Ms 28 -Mt 800 -Is 40.255 -Id -1.255 -It AODV -Il 106 -If 0 -Ii 0 -Iv 30 -P aodv -Pt 0x2 -Ph 1 -Pb 1 -Pd 0 -Pds 0 -Ps 40 -Pss 4 -Pc REQUEST 
r -t 1.001383552 -Hs 26 -Hd -2 -Ni 26 -Nx 1637.00 -Ny 546.00 -Nz 0.00 -Ne -1.000000 -Nl MAC -Nw --- -Ma 0 -Md ffffffff -Ms 28 -Mt 800 -Is 40.255 -Id -1.255 -It AODV -Il 48 -If 0 -Ii 0 -Iv 30 -P aodv -Pt 0x2 -Ph 1 -Pb 1 -Pd 0 -Pds 0 -Ps 40 -Pss 4 -Pc REQUEST 
r -t 1.001383572 -Hs 17 -Hd -2 -Ni 17 -Nx 1367.00 -Ny 650.00 -Nz 0.00 -Ne -1.000000 -Nl MAC -Nw --- -Ma 0 -Md ffffffff -Ms 28 -Mt 800 -Is 40.255 -Id -1.255 -It AODV -Il 48 -If 0 -Ii 0 -Iv 30 -P aodv -Pt 0x2 -Ph 1 -Pb 1 -Pd 0 -Pds 0 -Ps 40 -Pss 4 -Pc REQUEST 
r -t 1.001383659 -Hs 10 -Hd -2 -Ni 10 -Nx 1358.00 -Ny 356.00 -Nz 0.00 -Ne -1.000000 -Nl MAC -Nw --- -Ma 0 -Md ffffffff -Ms 28 -Mt 800 -Is 40.255 -Id -1.255 -It AODV -Il 48 -If 0 -Ii 0 -Iv 30 -P aodv -Pt 0x2 -Ph 1 -Pb 1 -Pd 0 -Pds 0 -Ps 40 -Pss 4 -Pc REQUEST 
r -t 1.001408552 -Hs 26 -Hd -2 -Ni 26 -Nx 1637.00 -Ny 546.00 -Nz 0.00 -Ne -1.000000 -Nl RTR -Nw --- -Ma 0 -Md ffffffff -Ms 28 -Mt 800 -Is 40.255 -Id -1.255 -It AODV -Il 48 -If 0 -Ii 0 -Iv 30 -P aodv -Pt 0x2 -Ph 1 -Pb 1 -Pd 0 -Pds 0 -Ps 40 -Pss 4 -Pc REQUEST 
r -t 1.001408572 -Hs 17 -Hd -2 -Ni 17 -Nx 1367.00 -Ny 650.00 -Nz 0.00 -Ne -1.000000 -Nl RTR -Nw --- -Ma 0 -Md ffffffff -Ms 28 -Mt 800 -Is 40.255 -Id -1.255 -It AODV -Il 48 -If 0 -Ii 0 -Iv 30 -P aodv -Pt 0x2 -Ph 1 -Pb 1 -Pd 0 -Pds 0 -Ps 40 -Pss 4 -Pc REQUEST 
r -t 1.001408659 -Hs 10 -Hd -2 -Ni 10 -Nx 1358.00 -Ny 356.00 -Nz 0.00 -Ne -1.000000 -Nl RTR -Nw --- -Ma 0 -Md ffffffff -Ms 28 -Mt 800 -Is 40.255 -Id -1.255 -It AODV -Il 48 -If 0 -Ii 0 -Iv 30 -P aodv -Pt 0x2 -Ph 1 -Pb 1 -Pd 0 -Pds 0 -Ps 40 -Pss 4 -Pc REQUEST 
s -t 1.001550599 -Hs 26 -Hd -2 -Ni 26 -Nx 1637.00 -Ny 546.00 -Nz 0.00 -Ne -1.000000 -Nl RTR -Nw --- -Ma 0 -Md ffffffff -Ms 28 -Mt 800 -Is 26.255 -Id -1.255 -It AODV -Il 48 -If 0 -Ii 0 -Iv 29 -P aodv -Pt 0x2 -Ph 2 -Pb 1 -Pd 0 -Pds 0 -Ps 40 -Pss 4 -Pc REQUEST 
s -t 1.001625599 -Hs 26 -Hd -2 -Ni 26 -Nx 1637.00 -Ny 546.00 -Nz 0.00 -Ne -1.000000 -Nl MAC -Nw --- -Ma 0 -Md ffffffff -Ms 1a -Mt 800 -Is 26.255 -Id -1.255 -It AODV -Il 106 -If 0 -Ii 0 -Iv 29 -P aodv -Pt 0x2 -Ph 2 -Pb 1 -Pd 0 -Pds 0 -Ps 40 -Pss 4 -Pc REQUEST 
s -t 1.002289798 -Hs 17 -Hd -2 -Ni 17 -Nx 1367.00 -Ny 650.00 -Nz 0.00 -Ne -1.000000 -Nl RTR -Nw --- -Ma 0 -Md ffffffff -Ms 28 -Mt 800 -Is 17.255 -Id -1.255 -It AODV -Il 48 -If 0 -Ii 0 -Iv 29 -P aodv -Pt 0x2 -Ph 2 -Pb 1 -Pd 0 -Pds 0 -Ps 40 -Pss 4 -Pc REQUEST 
r -t 1.002474015 -Hs 18 -Hd -2 -Ni 18 -Nx 1758.00 -Ny 577.00 -Nz 0.00 -Ne -1.000000 -Nl MAC -Nw --- -Ma 0 -Md ffffffff -Ms 1a -Mt 800 -Is 26.255 -Id -1.255 -It AODV -Il 48 -If 0 -Ii 0 -Iv 29 -P aodv -Pt 0x2 -Ph 2 -Pb 1 -Pd 0 -Pds 0 -Ps 40 -Pss 4 -Pc REQUEST 
r -t 1.002474152 -Hs 40 -Hd -2 -Ni 40 -Nx 1474.00 -Ny 516.00 -Nz 0.00 -Ne -1.000000 -Nl MAC -Nw --- -Ma 0 -Md ffffffff -Ms 1a -Mt 800 -Is 26.255 -Id -1.255 -It AODV -Il 48 -If 0 -Ii 0 -Iv 29 -P aodv -Pt 0x2 -Ph 2 -Pb 1 -Pd 0 -Pds 0 -Ps 40 -Pss 4 -Pc REQUEST 
r -t 1.002474162 -Hs 39 -Hd -2 -Ni 39 -Nx 1736.00 -Ny 683.00 -Nz 0.00 -Ne -1.000000 -Nl MAC -Nw --- -Ma 0 -Md ffffffff -Ms 1a -Mt 800 -Is 26.255 -Id -1.255 -It AODV -Il 48 -If 0 -Ii 0 -Iv 29 -P aodv -Pt 0x2 -Ph 2 -Pb 1 -Pd 0 -Pds 0 -Ps 40 -Pss 4 -Pc REQUEST 
r -t 1.002474315 -Hs 41 -Hd -2 -Ni 41 -Nx 1739.00 -Ny 357.00 -Nz 0.00 -Ne -1.000000 -Nl MAC -Nw --- -Ma 0 -Md ffffffff -Ms 1a -Mt 800 -Is 26.255 -Id -1.255 -It AODV -Il 48 -If 0 -Ii 0 -Iv 29 -P aodv -Pt 0x2 -Ph 2 -Pb 1 -Pd 0 -Pds 0 -Ps 40 -Pss 4 -Pc REQUEST 
r -t 1.002499015 -Hs 18 -Hd -2 -Ni 18 -Nx 1758.00 -Ny 577.00 -Nz 0.00 -Ne -1.000000 -Nl RTR -Nw --- -Ma 0 -Md ffffffff -Ms 1a -Mt 800 -Is 26.255 -Id -1.255 -It AODV -Il 48 -If 0 -Ii 0 -Iv 29 -P aodv -Pt 0x2 -Ph 2 -Pb 1 -Pd 0 -Pds 0 -Ps 40 -Pss 4 -Pc REQUEST 
r -t 1.002499152 -Hs 40 -Hd -2 -Ni 40 -Nx 1474.00 -Ny 516.00 -Nz 0.00 -Ne -1.000000 -Nl RTR -Nw --- -Ma 0 -Md ffffffff -Ms 1a -Mt 800 -Is 26.255 -Id -1.255 -It AODV -Il 48 -If 0 -Ii 0 -Iv 29 -P aodv -Pt 0x2 -Ph 2 -Pb 1 -Pd 0 -Pds 0 -Ps 40 -Pss 4 -Pc REQUEST 
r -t 1.002499162 -Hs 39 -Hd -2 -Ni 39 -Nx 1736.00 -Ny 683.00 -Nz 0.00 -Ne -1.000000 -Nl RTR -Nw --- -Ma 0 -Md ffffffff -Ms 1a -Mt 800 -Is 26.255 -Id -1.255 -It AODV -Il 48 -If 0 -Ii 0 -Iv 29 -P aodv -Pt 0x2 -Ph 2 -Pb 1 -Pd 0 -Pds 0 -Ps 40 -Pss 4 -Pc REQUEST 
r -t 1.002499315 -Hs 41 -Hd -2 -Ni 41 -Nx 1739.00 -Ny 357.00 -Nz 0.00 -Ne -1.000000 -Nl RTR -Nw --- -Ma 0 -Md ffffffff -Ms 1a -Mt 800 -Is 26.255 -Id -1.255 -It AODV -Il 48 -If 0 -Ii 0 -Iv 29 -P aodv -Pt 0x2 -Ph 2 -Pb 1 -Pd 0 -Pds 0 -Ps 40 -Pss 4 -Pc REQUEST 
s -t 1.003048564 -Hs 17 -Hd -2 -Ni 17 -Nx 1367.00 -Ny 650.00 -Nz 0.00 -Ne -1.000000 -Nl MAC -Nw --- -Ma 0 -Md ffffffff -Ms 11 -Mt 800 -Is 17.255 -Id -1.255 -It AODV -Il 106 -If 0 -Ii 0 -Iv 29 -P aodv -Pt 0x2 -Ph 2 -Pb 1 -Pd 0 -Pds 0 -Ps 40 -Pss 4 -Pc REQUEST 
r -t 1.003897006 -Hs 46 -Hd -2 -Ni 46 -Nx 1322.00 -Ny 775.00 -Nz 0.00 -Ne -1.000000 -Nl MAC -Nw --- -Ma 0 -Md ffffffff -Ms 11 -Mt 800 -Is 17.255 -Id -1.255 -It AODV -Il 48 -If 0 -Ii 0 -Iv 29 -P aodv -Pt 0x2 -Ph 2 -Pb 1 -Pd 0 -Pds 0 -Ps 40 -Pss 4 -Pc REQUEST 
r -t 1.003897088 -Hs 25 -Hd -2 -Ni 25 -Nx 1460.00 -Ny 777.00 -Nz 0.00 -Ne -1.000000 -Nl MAC -Nw --- -Ma 0 -Md ffffffff -Ms 11 -Mt 800 -Is 17.255 -Id -1.255 -It AODV -Il 48 -If 0 -Ii 0 -Iv 29 -P aodv -Pt 0x2 -Ph 2 -Pb 1 -Pd 0 -Pds 0 -Ps 40 -Pss 4 -Pc REQUEST 
r -t 1.003897135 -Hs 40 -Hd -2 -Ni 40 -Nx 1474.00 -Ny 516.00 -Nz 0.00 -Ne -1.000000 -Nl MAC -Nw --- -Ma 0 -Md ffffffff -Ms 11 -Mt 800 -Is 17.255 -Id -1.255 -It AODV -Il 48 -If 0 -Ii 0 -Iv 29 -P aodv -Pt 0x2 -Ph 2 -Pb 1 -Pd 0 -Pds 0 -Ps 40 -Pss 4 -Pc REQUEST 
r -t 1.003897181 -Hs 37 -Hd -2 -Ni 37 -Nx 1195.00 -Ny 719.00 -Nz 0.00 -Ne -1.000000 -Nl MAC -Nw --- -Ma 0 -Md ffffffff -Ms 11 -Mt 800 -Is 17.255 -Id -1.255 -It AODV -Il 48 -If 0 -Ii 0 -Iv 29 -P aodv -Pt 0x2 -Ph 2 -Pb 1 -Pd 0 -Pds 0 -Ps 40 -Pss 4 -Pc REQUEST 
r -t 1.003897262 -Hs 35 -Hd -2 -Ni 35 -Nx 1329.00 -Ny 856.00 -Nz 0.00 -Ne -1.000000 -Nl MAC -Nw --- -Ma 0 -Md ffffffff -Ms 11 -Mt 800 -Is 17.255 -Id -1.255 -It AODV -Il 48 -If 0 -Ii 0 -Iv 29 -P aodv -Pt 0x2 -Ph 2 -Pb 1 -Pd 0 -Pds 0 -Ps 40 -Pss 4 -Pc REQUEST 
r -t 1.003897334 -Hs 16 -Hd -2 -Ni 16 -Nx 1184.00 -Ny 509.00 -Nz 0.00 -Ne -1.000000 -Nl MAC -Nw --- -Ma 0 -Md ffffffff -Ms 11 -Mt 800 -Is 17.255 -Id -1.255 -It AODV -Il 48 -If 0 -Ii 0 -Iv 29 -P aodv -Pt 0x2 -Ph 2 -Pb 1 -Pd 0 -Pds 0 -Ps 40 -Pss 4 -Pc REQUEST 
r -t 1.003897371 -Hs 47 -Hd -2 -Ni 47 -Nx 1457.00 -Ny 875.00 -Nz 0.00 -Ne -1.000000 -Nl MAC -Nw --- -Ma 0 -Md ffffffff -Ms 11 -Mt 800 -Is 17.255 -Id -1.255 -It AODV -Il 48 -If 0 -Ii 0 -Iv 29 -P aodv -Pt 0x2 -Ph 2 -Pb 1 -Pd 0 -Pds 0 -Ps 40 -Pss 4 -Pc REQUEST 
r -t 1.003922006 -Hs 46 -Hd -2 -Ni 46 -Nx 1322.00 -Ny 775.00 -Nz 0.00 -Ne -1.000000 -Nl RTR -Nw --- -Ma 0 -Md ffffffff -Ms 11 -Mt 800 -Is 17.255 -Id -1.255 -It AODV -Il 48 -If 0 -Ii 0 -Iv 29 -P aodv -Pt 0x2 -Ph 2 -Pb 1 -Pd 0 -Pds 0 -Ps 40 -Pss 4 -Pc REQUEST 
r -t 1.003922088 -Hs 25 -Hd -2 -Ni 25 -Nx 1460.00 -Ny 777.00 -Nz 0.00 -Ne -1.000000 -Nl RTR -Nw --- -Ma 0 -Md ffffffff -Ms 11 -Mt 800 -Is 17.255 -Id -1.255 -It AODV -Il 48 -If 0 -Ii 0 -Iv 29 -P aodv -Pt 0x2 -Ph 2 -Pb 1 -Pd 0 -Pds 0 -Ps 40 -Pss 4 -Pc REQUEST 
r -t 1.003922135 -Hs 40 -Hd -2 -Ni 40 -Nx 1474.00 -Ny 516.00 -Nz 0.00 -Ne -1.000000 -Nl RTR -Nw --- -Ma 0 -Md ffffffff -Ms 11 -Mt 800 -Is 17.255 -Id -1.255 -It AODV -Il 48 -If 0 -Ii 0 -Iv 29 -P aodv -Pt 0x2 -Ph 2 -Pb 1 -Pd 0 -Pds 0 -Ps 40 -Pss 4 -Pc REQUEST 
r -t 1.003922181 -Hs 37 -Hd -2 -Ni 37 -Nx 1195.00 -Ny 719.00 -Nz 0.00 -Ne -1.000000 -Nl RTR -Nw --- -Ma 0 -Md ffffffff -Ms 11 -Mt 800 -Is 17.255 -Id -1.255 -It AODV -Il 48 -If 0 -Ii 0 -Iv 29 -P aodv -Pt 0x2 -Ph 2 -Pb 1 -Pd 0 -Pds 0 -Ps 40 -Pss 4 -Pc REQUEST 
r -t 1.003922262 -Hs 35 -Hd -2 -Ni 35 -Nx 1329.00 -Ny 856.00 -Nz 0.00 -Ne -1.000000 -Nl RTR -Nw --- -Ma 0 -Md ffffffff -Ms 11 -Mt 800 -Is 17.255 -Id -1.255 -It AODV -Il 48 -If 0 -Ii 0 -Iv 29 -P aodv -Pt 0x2 -Ph 2 -Pb 1 -Pd 0 -Pds 0 -Ps 40 -Pss 4 -Pc REQUEST 
r -t 1.003922334 -Hs 16 -Hd -2 -Ni 16 -Nx 1184.00 -Ny 509.00 -Nz 0.00 -Ne -1.000000 -Nl RTR -Nw --- -Ma 0 -Md ffffffff -Ms 11 -Mt 800 -Is 17.255 -Id -1.255 -It AODV -Il 48 -If 0 -Ii 0 -Iv 29 -P aodv -Pt 0x2 -Ph 2 -Pb 1 -Pd 0 -Pds 0 -Ps 40 -Pss 4 -Pc REQUEST 
r -t 1.003922371 -Hs 47 -Hd -2 -Ni 47 -Nx 1457.00 -Ny 875.00 -Nz 0.00 -Ne -1.000000 -Nl RTR -Nw --- -Ma 0 -Md ffffffff -Ms 11 -Mt 800 -Is 17.255 -Id -1.255 -It AODV -Il 48 -If 0 -Ii 0 -Iv 29 -P aodv -Pt 0x2 -Ph 2 -Pb 1 -Pd 0 -Pds 0 -Ps 40 -Pss 4 -Pc REQUEST 
s -t 1.004350034 -Hs 25 -Hd -2 -Ni 25 -Nx 1460.00 -Ny 777.00 -Nz 0.00 -Ne -1.000000 -Nl RTR -Nw --- -Ma 0 -Md ffffffff -Ms 11 -Mt 800 -Is 25.255 -Id -1.255 -It AODV -Il 48 -If 0 -Ii 0 -Iv 28 -P aodv -Pt 0x2 -Ph 3 -Pb 1 -Pd 0 -Pds 0 -Ps 40 -Pss 4 -Pc REQUEST 
s -t 1.004845033 -Hs 18 -Hd -2 -Ni 18 -Nx 1758.00 -Ny 577.00 -Nz 0.00 -Ne -1.000000 -Nl RTR -Nw --- -Ma 0 -Md ffffffff -Ms 1a -Mt 800 -Is 18.255 -Id -1.255 -It AODV -Il 48 -If 0 -Ii 0 -Iv 28 -P aodv -Pt 0x2 -Ph 3 -Pb 1 -Pd 0 -Pds 0 -Ps 40 -Pss 4 -Pc REQUEST 
s -t 1.004905034 -Hs 25 -Hd -2 -Ni 25 -Nx 1460.00 -Ny 777.00 -Nz 0.00 -Ne -1.000000 -Nl MAC -Nw --- -Ma 0 -Md ffffffff -Ms 19 -Mt 800 -Is 25.255 -Id -1.255 -It AODV -Il 106 -If 0 -Ii 0 -Iv 28 -P aodv -Pt 0x2 -Ph 3 -Pb 1 -Pd 0 -Pds 0 -Ps 40 -Pss 4 -Pc REQUEST 
s -t 1.005060344 -Hs 35 -Hd -2 -Ni 35 -Nx 1329.00 -Ny 856.00 -Nz 0.00 -Ne -1.000000 -Nl RTR -Nw --- -Ma 0 -Md ffffffff -Ms 11 -Mt 800 -Is 35.255 -Id -1.255 -It AODV -Il 48 -If 0 -Ii 0 -Iv 28 -P aodv -Pt 0x2 -Ph 3 -Pb 1 -Pd 0 -Pds 0 -Ps 40 -Pss 4 -Pc REQUEST 
s -t 1.005563460 -Hs 46 -Hd -2 -Ni 46 -Nx 1322.00 -Ny 775.00 -Nz 0.00 -Ne -1.000000 -Nl RTR -Nw --- -Ma 0 -Md ffffffff -Ms 11 -Mt 800 -Is 46.255 -Id -1.255 -It AODV -Il 48 -If 0 -Ii 0 -Iv 28 -P aodv -Pt 0x2 -Ph 3 -Pb 1 -Pd 0 -Pds 0 -Ps 40 -Pss 4 -Pc REQUEST 
s -t 1.005590106 -Hs 41 -Hd -2 -Ni 41 -Nx 1739.00 -Ny 357.00 -Nz 0.00 -Ne -1.000000 -Nl RTR -Nw --- -Ma 0 -Md ffffffff -Ms 1a -Mt 800 -Is 41.255 -Id -1.255 -It AODV -Il 48 -If 0 -Ii 0 -Iv 28 -P aodv -Pt 0x2 -Ph 3 -Pb 1 -Pd 0 -Pds 0 -Ps 40 -Pss 4 -Pc REQUEST 
r -t 1.005753361 -Hs 47 -Hd -2 -Ni 47 -Nx 1457.00 -Ny 875.00 -Nz 0.00 -Ne -1.000000 -Nl MAC -Nw --- -Ma 0 -Md ffffffff -Ms 19 -Mt 800 -Is 25.255 -Id -1.255 -It AODV -Il 48 -If 0 -Ii 0 -Iv 28 -P aodv -Pt 0x2 -Ph 3 -Pb 1 -Pd 0 -Pds 0 -Ps 40 -Pss 4 -Pc REQUEST 
r -t 1.005753494 -Hs 46 -Hd -2 -Ni 46 -Nx 1322.00 -Ny 775.00 -Nz 0.00 -Ne -1.000000 -Nl MAC -Nw --- -Ma 0 -Md ffffffff -Ms 19 -Mt 800 -Is 25.255 -Id -1.255 -It AODV -Il 48 -If 0 -Ii 0 -Iv 28 -P aodv -Pt 0x2 -Ph 3 -Pb 1 -Pd 0 -Pds 0 -Ps 40 -Pss 4 -Pc REQUEST 
r -t 1.005753544 -Hs 35 -Hd -2 -Ni 35 -Nx 1329.00 -Ny 856.00 -Nz 0.00 -Ne -1.000000 -Nl MAC -Nw --- -Ma 0 -Md ffffffff -Ms 19 -Mt 800 -Is 25.255 -Id -1.255 -It AODV -Il 48 -If 0 -Ii 0 -Iv 28 -P aodv -Pt 0x2 -Ph 3 -Pb 1 -Pd 0 -Pds 0 -Ps 40 -Pss 4 -Pc REQUEST 
r -t 1.005753559 -Hs 17 -Hd -2 -Ni 17 -Nx 1367.00 -Ny 650.00 -Nz 0.00 -Ne -1.000000 -Nl MAC -Nw --- -Ma 0 -Md ffffffff -Ms 19 -Mt 800 -Is 25.255 -Id -1.255 -It AODV -Il 48 -If 0 -Ii 0 -Iv 28 -P aodv -Pt 0x2 -Ph 3 -Pb 1 -Pd 0 -Pds 0 -Ps 40 -Pss 4 -Pc REQUEST 
r -t 1.005753664 -Hs 38 -Hd -2 -Ni 38 -Nx 1628.00 -Ny 864.00 -Nz 0.00 -Ne -1.000000 -Nl MAC -Nw --- -Ma 0 -Md ffffffff -Ms 19 -Mt 800 -Is 25.255 -Id -1.255 -It AODV -Il 48 -If 0 -Ii 0 -Iv 28 -P aodv -Pt 0x2 -Ph 3 -Pb 1 -Pd 0 -Pds 0 -Ps 40 -Pss 4 -Pc REQUEST 
r -t 1.005753845 -Hs 44 -Hd -2 -Ni 44 -Nx 1309.00 -Ny 968.00 -Nz 0.00 -Ne -1.000000 -Nl MAC -Nw --- -Ma 0 -Md ffffffff -Ms 19 -Mt 800 -Is 25.255 -Id -1.255 -It AODV -Il 48 -If 0 -Ii 0 -Iv 28 -P aodv -Pt 0x2 -Ph 3 -Pb 1 -Pd 0 -Pds 0 -Ps 40 -Pss 4 -Pc REQUEST 
r -t 1.005778361 -Hs 47 -Hd -2 -Ni 47 -Nx 1457.00 -Ny 875.00 -Nz 0.00 -Ne -1.000000 -Nl RTR -Nw --- -Ma 0 -Md ffffffff -Ms 19 -Mt 800 -Is 25.255 -Id -1.255 -It AODV -Il 48 -If 0 -Ii 0 -Iv 28 -P aodv -Pt 0x2 -Ph 3 -Pb 1 -Pd 0 -Pds 0 -Ps 40 -Pss 4 -Pc REQUEST 
r -t 1.005778494 -Hs 46 -Hd -2 -Ni 46 -Nx 1322.00 -Ny 775.00 -Nz 0.00 -Ne -1.000000 -Nl RTR -Nw --- -Ma 0 -Md ffffffff -Ms 19 -Mt 800 -Is 25.255 -Id -1.255 -It AODV -Il 48 -If 0 -Ii 0 -Iv 28 -P aodv -Pt 0x2 -Ph 3 -Pb 1 -Pd 0 -Pds 0 -Ps 40 -Pss 4 -Pc REQUEST 
r -t 1.005778544 -Hs 35 -Hd -2 -Ni 35 -Nx 1329.00 -Ny 856.00 -Nz 0.00 -Ne -1.000000 -Nl RTR -Nw --- -Ma 0 -Md ffffffff -Ms 19 -Mt 800 -Is 25.255 -Id -1.255 -It AODV -Il 48 -If 0 -Ii 0 -Iv 28 -P aodv -Pt 0x2 -Ph 3 -Pb 1 -Pd 0 -Pds 0 -Ps 40 -Pss 4 -Pc REQUEST 
r -t 1.005778559 -Hs 17 -Hd -2 -Ni 17 -Nx 1367.00 -Ny 650.00 -Nz 0.00 -Ne -1.000000 -Nl RTR -Nw --- -Ma 0 -Md ffffffff -Ms 19 -Mt 800 -Is 25.255 -Id -1.255 -It AODV -Il 48 -If 0 -Ii 0 -Iv 28 -P aodv -Pt 0x2 -Ph 3 -Pb 1 -Pd 0 -Pds 0 -Ps 40 -Pss 4 -Pc REQUEST 
r -t 1.005778664 -Hs 38 -Hd -2 -Ni 38 -Nx 1628.00 -Ny 864.00 -Nz 0.00 -Ne -1.000000 -Nl RTR -Nw --- -Ma 0 -Md ffffffff -Ms 19 -Mt 800 -Is 25.255 -Id -1.255 -It AODV -Il 48 -If 0 -Ii 0 -Iv 28 -P aodv -Pt 0x2 -Ph 3 -Pb 1 -Pd 0 -Pds 0 -Ps 40 -Pss 4 -Pc REQUEST 
r -t 1.005778845 -Hs 44 -Hd -2 -Ni 44 -Nx 1309.00 -Ny 968.00 -Nz 0.00 -Ne -1.000000 -Nl RTR -Nw --- -Ma 0 -Md ffffffff -Ms 19 -Mt 800 -Is 25.255 -Id -1.255 -It AODV -Il 48 -If 0 -Ii 0 -Iv 28 -P aodv -Pt 0x2 -Ph 3 -Pb 1 -Pd 0 -Pds 0 -Ps 40 -Pss 4 -Pc REQUEST 
s -t 1.005820393 -Hs 10 -Hd -2 -Ni 10 -Nx 1358.00 -Ny 356.00 -Nz 0.00 -Ne -1.000000 -Nl RTR -Nw --- -Ma 0 -Md ffffffff -Ms 28 -Mt 800 -Is 10.255 -Id -1.255 -It AODV -Il 48 -If 0 -Ii 0 -Iv 29 -P aodv -Pt 0x2 -Ph 2 -Pb 1 -Pd 0 -Pds 0 -Ps 40 -Pss 4 -Pc REQUEST 
s -t 1.006003494 -Hs 46 -Hd -2 -Ni 46 -Nx 1322.00 -Ny 775.00 -Nz 0.00 -Ne -1.000000 -Nl MAC -Nw --- -Ma 0 -Md ffffffff -Ms 2e -Mt 800 -Is 46.255 -Id -1.255 -It AODV -Il 106 -If 0 -Ii 0 -Iv 28 -P aodv -Pt 0x2 -Ph 3 -Pb 1 -Pd 0 -Pds 0 -Ps 40 -Pss 4 -Pc REQUEST 
s -t 1.006388715 -Hs 41 -Hd -2 -Ni 41 -Nx 1739.00 -Ny 357.00 -Nz 0.00 -Ne -1.000000 -Nl MAC -Nw --- -Ma 0 -Md ffffffff -Ms 29 -Mt 800 -Is 41.255 -Id -1.255 -It AODV -Il 106 -If 0 -Ii 0 -Iv 28 -P aodv -Pt 0x2 -Ph 3 -Pb 1 -Pd 0 -Pds 0 -Ps 40 -Pss 4 -Pc REQUEST 
r -t 1.006851765 -Hs 35 -Hd -2 -Ni 35 -Nx 1329.00 -Ny 856.00 -Nz 0.00 -Ne -1.000000 -Nl MAC -Nw --- -Ma 0 -Md ffffffff -Ms 2e -Mt 800 -Is 46.255 -Id -1.255 -It AODV -Il 48 -If 0 -Ii 0 -Iv 28 -P aodv -Pt 0x2 -Ph 3 -Pb 1 -Pd 0 -Pds 0 -Ps 40 -Pss 4 -Pc REQUEST 
r -t 1.006851937 -Hs 17 -Hd -2 -Ni 17 -Nx 1367.00 -Ny 650.00 -Nz 0.00 -Ne -1.000000 -Nl MAC -Nw --- -Ma 0 -Md ffffffff -Ms 2e -Mt 800 -Is 46.255 -Id -1.255 -It AODV -Il 48 -If 0 -Ii 0 -Iv 28 -P aodv -Pt 0x2 -Ph 3 -Pb 1 -Pd 0 -Pds 0 -Ps 40 -Pss 4 -Pc REQUEST 
r -t 1.006851954 -Hs 25 -Hd -2 -Ni 25 -Nx 1460.00 -Ny 777.00 -Nz 0.00 -Ne -1.000000 -Nl MAC -Nw --- -Ma 0 -Md ffffffff -Ms 2e -Mt 800 -Is 46.255 -Id -1.255 -It AODV -Il 48 -If 0 -Ii 0 -Iv 28 -P aodv -Pt 0x2 -Ph 3 -Pb 1 -Pd 0 -Pds 0 -Ps 40 -Pss 4 -Pc REQUEST 
r -t 1.006851957 -Hs 37 -Hd -2 -Ni 37 -Nx 1195.00 -Ny 719.00 -Nz 0.00 -Ne -1.000000 -Nl MAC -Nw --- -Ma 0 -Md ffffffff -Ms 2e -Mt 800 -Is 46.255 -Id -1.255 -It AODV -Il 48 -If 0 -Ii 0 -Iv 28 -P aodv -Pt 0x2 -Ph 3 -Pb 1 -Pd 0 -Pds 0 -Ps 40 -Pss 4 -Pc REQUEST 
r -t 1.006851987 -Hs 45 -Hd -2 -Ni 45 -Nx 1207.00 -Ny 868.00 -Nz 0.00 -Ne -1.000000 -Nl MAC -Nw --- -Ma 0 -Md ffffffff -Ms 2e -Mt 800 -Is 46.255 -Id -1.255 -It AODV -Il 48 -If 0 -Ii 0 -Iv 28 -P aodv -Pt 0x2 -Ph 3 -Pb 1 -Pd 0 -Pds 0 -Ps 40 -Pss 4 -Pc REQUEST 
r -t 1.006852054 -Hs 47 -Hd -2 -Ni 47 -Nx 1457.00 -Ny 875.00 -Nz 0.00 -Ne -1.000000 -Nl MAC -Nw --- -Ma 0 -Md ffffffff -Ms 2e -Mt 800 -Is 46.255 -Id -1.255 -It AODV -Il 48 -If 0 -Ii 0 -Iv 28 -P aodv -Pt 0x2 -Ph 3 -Pb 1 -Pd 0 -Pds 0 -Ps 40 -Pss 4 -Pc REQUEST 
r -t 1.006852139 -Hs 44 -Hd -2 -Ni 44 -Nx 1309.00 -Ny 968.00 -Nz 0.00 -Ne -1.000000 -Nl MAC -Nw --- -Ma 0 -Md ffffffff -Ms 2e -Mt 800 -Is 46.255 -Id -1.255 -It AODV -Il 48 -If 0 -Ii 0 -Iv 28 -P aodv -Pt 0x2 -Ph 3 -Pb 1 -Pd 0 -Pds 0 -Ps 40 -Pss 4 -Pc REQUEST 
r -t 1.006876765 -Hs 35 -Hd -2 -Ni 35 -Nx 1329.00 -Ny 856.00 -Nz 0.00 -Ne -1.000000 -Nl RTR -Nw --- -Ma 0 -Md ffffffff -Ms 2e -Mt 800 -Is 46.255 -Id -1.255 -It AODV -Il 48 -If 0 -Ii 0 -Iv 28 -P aodv -Pt 0x2 -Ph 3 -Pb 1 -Pd 0 -Pds 0 -Ps 40 -Pss 4 -Pc REQUEST 
r -t 1.006876937 -Hs 17 -Hd -2 -Ni 17 -Nx 1367.00 -Ny 650.00 -Nz 0.00 -Ne -1.000000 -Nl RTR -Nw --- -Ma 0 -Md ffffffff -Ms 2e -Mt 800 -Is 46.255 -Id -1.255 -It AODV -Il 48 -If 0 -Ii 0 -Iv 28 -P aodv -Pt 0x2 -Ph 3 -Pb 1 -Pd 0 -Pds 0 -Ps 40 -Pss 4 -Pc REQUEST 
r -t 1.006876954 -Hs 25 -Hd -2 -Ni 25 -Nx 1460.00 -Ny 777.00 -Nz 0.00 -Ne -1.000000 -Nl RTR -Nw --- -Ma 0 -Md ffffffff -Ms 2e -Mt 800 -Is 46.255 -Id -1.255 -It AODV -Il 48 -If 0 -Ii 0 -Iv 28 -P aodv -Pt 0x2 -Ph 3 -Pb 1 -Pd 0 -Pds 0 -Ps 40 -Pss 4 -Pc REQUEST 
r -t 1.006876957 -Hs 37 -Hd -2 -Ni 37 -Nx 1195.00 -Ny 719.00 -Nz 0.00 -Ne -1.000000 -Nl RTR -Nw --- -Ma 0 -Md ffffffff -Ms 2e -Mt 800 -Is 46.255 -Id -1.255 -It AODV -Il 48 -If 0 -Ii 0 -Iv 28 -P aodv -Pt 0x2 -Ph 3 -Pb 1 -Pd 0 -Pds 0 -Ps 40 -Pss 4 -Pc REQUEST 
r -t 1.006876987 -Hs 45 -Hd -2 -Ni 45 -Nx 1207.00 -Ny 868.00 -Nz 0.00 -Ne -1.000000 -Nl RTR -Nw --- -Ma 0 -Md ffffffff -Ms 2e -Mt 800 -Is 46.255 -Id -1.255 -It AODV -Il 48 -If 0 -Ii 0 -Iv 28 -P aodv -Pt 0x2 -Ph 3 -Pb 1 -Pd 0 -Pds 0 -Ps 40 -Pss 4 -Pc REQUEST 
r -t 1.006877054 -Hs 47 -Hd -2 -Ni 47 -Nx 1457.00 -Ny 875.00 -Nz 0.00 -Ne -1.000000 -Nl RTR -Nw --- -Ma 0 -Md ffffffff -Ms 2e -Mt 800 -Is 46.255 -Id -1.255 -It AODV -Il 48 -If 0 -Ii 0 -Iv 28 -P aodv -Pt 0x2 -Ph 3 -Pb 1 -Pd 0 -Pds 0 -Ps 40 -Pss 4 -Pc REQUEST 
r -t 1.006877139 -Hs 44 -Hd -2 -Ni 44 -Nx 1309.00 -Ny 968.00 -Nz 0.00 -Ne -1.000000 -Nl RTR -Nw --- -Ma 0 -Md ffffffff -Ms 2e -Mt 800 -Is 46.255 -Id -1.255 -It AODV -Il 48 -If 0 -Ii 0 -Iv 28 -P aodv -Pt 0x2 -Ph 3 -Pb 1 -Pd 0 -Pds 0 -Ps 40 -Pss 4 -Pc REQUEST 
s -t 1.007021765 -Hs 35 -Hd -2 -Ni 35 -Nx 1329.00 -Ny 856.00 -Nz 0.00 -Ne -1.000000 -Nl MAC -Nw --- -Ma 0 -Md ffffffff -Ms 23 -Mt 800 -Is 35.255 -Id -1.255 -It AODV -Il 106 -If 0 -Ii 0 -Iv 28 -P aodv -Pt 0x2 -Ph 3 -Pb 1 -Pd 0 -Pds 0 -Ps 40 -Pss 4 -Pc REQUEST 
r -t 1.007237039 -Hs 13 -Hd -2 -Ni 13 -Nx 1771.00 -Ny 265.00 -Nz 0.00 -Ne -1.000000 -Nl MAC -Nw --- -Ma 0 -Md ffffffff -Ms 29 -Mt 800 -Is 41.255 -Id -1.255 -It AODV -Il 48 -If 0 -Ii 0 -Iv 28 -P aodv -Pt 0x2 -Ph 3 -Pb 1 -Pd 0 -Pds 0 -Ps 40 -Pss 4 -Pc REQUEST 
d -t 1.007237430 -Hs 26 -Hd -2 -Ni 26 -Nx 1637.00 -Ny 546.00 -Nz 0.00 -Ne -1.000000 -Nl MAC -Nw COL -Ma 0 -Md ffffffff -Ms 29 -Mt 800 -Is 41.255 -Id -1.255 -It AODV -Il 106 -If 0 -Ii 0 -Iv 28 -P aodv -Pt 0x2 -Ph 3 -Pb 1 -Pd 0 -Pds 0 -Ps 40 -Pss 4 -Pc REQUEST 
r -t 1.007237446 -Hs 11 -Hd -2 -Ni 11 -Nx 1558.00 -Ny 233.00 -Nz 0.00 -Ne -1.000000 -Nl MAC -Nw --- -Ma 0 -Md ffffffff -Ms 29 -Mt 800 -Is 41.255 -Id -1.255 -It AODV -Il 48 -If 0 -Ii 0 -Iv 28 -P aodv -Pt 0x2 -Ph 3 -Pb 1 -Pd 0 -Pds 0 -Ps 40 -Pss 4 -Pc REQUEST 
d -t 1.007237451 -Hs 18 -Hd -2 -Ni 18 -Nx 1758.00 -Ny 577.00 -Nz 0.00 -Ne -1.000000 -Nl MAC -Nw COL -Ma 0 -Md ffffffff -Ms 29 -Mt 800 -Is 41.255 -Id -1.255 -It AODV -Il 106 -If 0 -Ii 0 -Iv 28 -P aodv -Pt 0x2 -Ph 3 -Pb 1 -Pd 0 -Pds 0 -Ps 40 -Pss 4 -Pc REQUEST 
r -t 1.007262039 -Hs 13 -Hd -2 -Ni 13 -Nx 1771.00 -Ny 265.00 -Nz 0.00 -Ne -1.000000 -Nl RTR -Nw --- -Ma 0 -Md ffffffff -Ms 29 -Mt 800 -Is 41.255 -Id -1.255 -It AODV -Il 48 -If 0 -Ii 0 -Iv 28 -P aodv -Pt 0x2 -Ph 3 -Pb 1 -Pd 0 -Pds 0 -Ps 40 -Pss 4 -Pc REQUEST 
r -t 1.007262446 -Hs 11 -Hd -2 -Ni 11 -Nx 1558.00 -Ny 233.00 -Nz 0.00 -Ne -1.000000 -Nl RTR -Nw --- -Ma 0 -Md ffffffff -Ms 29 -Mt 800 -Is 41.255 -Id -1.255 -It AODV -Il 48 -If 0 -Ii 0 -Iv 28 -P aodv -Pt 0x2 -Ph 3 -Pb 1 -Pd 0 -Pds 0 -Ps 40 -Pss 4 -Pc REQUEST 
r -t 1.007870036 -Hs 46 -Hd -2 -Ni 46 -Nx 1322.00 -Ny 775.00 -Nz 0.00 -Ne -1.000000 -Nl MAC -Nw --- -Ma 0 -Md ffffffff -Ms 23 -Mt 800 -Is 35.255 -Id -1.255 -It AODV -Il 48 -If 0 -Ii 0 -Iv 28 -P aodv -Pt 0x2 -Ph 3 -Pb 1 -Pd 0 -Pds 0 -Ps 40 -Pss 4 -Pc REQUEST 
r -t 1.007870144 -Hs 44 -Hd -2 -Ni 44 -Nx 1309.00 -Ny 968.00 -Nz 0.00 -Ne -1.000000 -Nl MAC -Nw --- -Ma 0 -Md ffffffff -Ms 23 -Mt 800 -Is 35.255 -Id -1.255 -It AODV -Il 48 -If 0 -Ii 0 -Iv 28 -P aodv -Pt 0x2 -Ph 3 -Pb 1 -Pd 0 -Pds 0 -Ps 40 -Pss 4 -Pc REQUEST 
r -t 1.007870173 -Hs 45 -Hd -2 -Ni 45 -Nx 1207.00 -Ny 868.00 -Nz 0.00 -Ne -1.000000 -Nl MAC -Nw --- -Ma 0 -Md ffffffff -Ms 23 -Mt 800 -Is 35.255 -Id -1.255 -It AODV -Il 48 -If 0 -Ii 0 -Iv 28 -P aodv -Pt 0x2 -Ph 3 -Pb 1 -Pd 0 -Pds 0 -Ps 40 -Pss 4 -Pc REQUEST 
r -t 1.007870196 -Hs 47 -Hd -2 -Ni 47 -Nx 1457.00 -Ny 875.00 -Nz 0.00 -Ne -1.000000 -Nl MAC -Nw --- -Ma 0 -Md ffffffff -Ms 23 -Mt 800 -Is 35.255 -Id -1.255 -It AODV -Il 48 -If 0 -Ii 0 -Iv 28 -P aodv -Pt 0x2 -Ph 3 -Pb 1 -Pd 0 -Pds 0 -Ps 40 -Pss 4 -Pc REQUEST 
r -t 1.007870275 -Hs 25 -Hd -2 -Ni 25 -Nx 1460.00 -Ny 777.00 -Nz 0.00 -Ne -1.000000 -Nl MAC -Nw --- -Ma 0 -Md ffffffff -Ms 23 -Mt 800 -Is 35.255 -Id -1.255 -It AODV -Il 48 -If 0 -Ii 0 -Iv 28 -P aodv -Pt 0x2 -Ph 3 -Pb 1 -Pd 0 -Pds 0 -Ps 40 -Pss 4 -Pc REQUEST 
r -t 1.007870404 -Hs 37 -Hd -2 -Ni 37 -Nx 1195.00 -Ny 719.00 -Nz 0.00 -Ne -1.000000 -Nl MAC -Nw --- -Ma 0 -Md ffffffff -Ms 23 -Mt 800 -Is 35.255 -Id -1.255 -It AODV -Il 48 -If 0 -Ii 0 -Iv 28 -P aodv -Pt 0x2 -Ph 3 -Pb 1 -Pd 0 -Pds 0 -Ps 40 -Pss 4 -Pc REQUEST 
r -t 1.007870463 -Hs 17 -Hd -2 -Ni 17 -Nx 1367.00 -Ny 650.00 -Nz 0.00 -Ne -1.000000 -Nl MAC -Nw --- -Ma 0 -Md ffffffff -Ms 23 -Mt 800 -Is 35.255 -Id -1.255 -It AODV -Il 48 -If 0 -Ii 0 -Iv 28 -P aodv -Pt 0x2 -Ph 3 -Pb 1 -Pd 0 -Pds 0 -Ps 40 -Pss 4 -Pc REQUEST 
r -t 1.007895036 -Hs 46 -Hd -2 -Ni 46 -Nx 1322.00 -Ny 775.00 -Nz 0.00 -Ne -1.000000 -Nl RTR -Nw --- -Ma 0 -Md ffffffff -Ms 23 -Mt 800 -Is 35.255 -Id -1.255 -It AODV -Il 48 -If 0 -Ii 0 -Iv 28 -P aodv -Pt 0x2 -Ph 3 -Pb 1 -Pd 0 -Pds 0 -Ps 40 -Pss 4 -Pc REQUEST 
r -t 1.007895144 -Hs 44 -Hd -2 -Ni 44 -Nx 1309.00 -Ny 968.00 -Nz 0.00 -Ne -1.000000 -Nl RTR -Nw --- -Ma 0 -Md ffffffff -Ms 23 -Mt 800 -Is 35.255 -Id -1.255 -It AODV -Il 48 -If 0 -Ii 0 -Iv 28 -P aodv -Pt 0x2 -Ph 3 -Pb 1 -Pd 0 -Pds 0 -Ps 40 -Pss 4 -Pc REQUEST 
r -t 1.007895173 -Hs 45 -Hd -2 -Ni 45 -Nx 1207.00 -Ny 868.00 -Nz 0.00 -Ne -1.000000 -Nl RTR -Nw --- -Ma 0 -Md ffffffff -Ms 23 -Mt 800 -Is 35.255 -Id -1.255 -It AODV -Il 48 -If 0 -Ii 0 -Iv 28 -P aodv -Pt 0x2 -Ph 3 -Pb 1 -Pd 0 -Pds 0 -Ps 40 -Pss 4 -Pc REQUEST 
r -t 1.007895196 -Hs 47 -Hd -2 -Ni 47 -Nx 1457.00 -Ny 875.00 -Nz 0.00 -Ne -1.000000 -Nl RTR -Nw --- -Ma 0 -Md ffffffff -Ms 23 -Mt 800 -Is 35.255 -Id -1.255 -It AODV -Il 48 -If 0 -Ii 0 -Iv 28 -P aodv -Pt 0x2 -Ph 3 -Pb 1 -Pd 0 -Pds 0 -Ps 40 -Pss 4 -Pc REQUEST 
r -t 1.007895275 -Hs 25 -Hd -2 -Ni 25 -Nx 1460.00 -Ny 777.00 -Nz 0.00 -Ne -1.000000 -Nl RTR -Nw --- -Ma 0 -Md ffffffff -Ms 23 -Mt 800 -Is 35.255 -Id -1.255 -It AODV -Il 48 -If 0 -Ii 0 -Iv 28 -P aodv -Pt 0x2 -Ph 3 -Pb 1 -Pd 0 -Pds 0 -Ps 40 -Pss 4 -Pc REQUEST 
r -t 1.007895404 -Hs 37 -Hd -2 -Ni 37 -Nx 1195.00 -Ny 719.00 -Nz 0.00 -Ne -1.000000 -Nl RTR -Nw --- -Ma 0 -Md ffffffff -Ms 23 -Mt 800 -Is 35.255 -Id -1.255 -It AODV -Il 48 -If 0 -Ii 0 -Iv 28 -P aodv -Pt 0x2 -Ph 3 -Pb 1 -Pd 0 -Pds 0 -Ps 40 -Pss 4 -Pc REQUEST 
r -t 1.007895463 -Hs 17 -Hd -2 -Ni 17 -Nx 1367.00 -Ny 650.00 -Nz 0.00 -Ne -1.000000 -Nl RTR -Nw --- -Ma 0 -Md ffffffff -Ms 23 -Mt 800 -Is 35.255 -Id -1.255 -It AODV -Il 48 -If 0 -Ii 0 -Iv 28 -P aodv -Pt 0x2 -Ph 3 -Pb 1 -Pd 0 -Pds 0 -Ps 40 -Pss 4 -Pc REQUEST 
s -t 1.008158939 -Hs 47 -Hd -2 -Ni 47 -Nx 1457.00 -Ny 875.00 -Nz 0.00 -Ne -1.000000 -Nl RTR -Nw --- -Ma 0 -Md ffffffff -Ms 11 -Mt 800 -Is 47.255 -Id -1.255 -It AODV -Il 48 -If 0 -Ii 0 -Iv 28 -P aodv -Pt 0x2 -Ph 3 -Pb 1 -Pd 0 -Pds 0 -Ps 40 -Pss 4 -Pc REQUEST 
s -t 1.008465434 -Hs 10 -Hd -2 -Ni 10 -Nx 1358.00 -Ny 356.00 -Nz 0.00 -Ne -1.000000 -Nl MAC -Nw --- -Ma 0 -Md ffffffff -Ms a -Mt 800 -Is 10.255 -Id -1.255 -It AODV -Il 106 -If 0 -Ii 0 -Iv 29 -P aodv -Pt 0x2 -Ph 2 -Pb 1 -Pd 0 -Pds 0 -Ps 40 -Pss 4 -Pc REQUEST 
s -t 1.008887814 -Hs 39 -Hd -2 -Ni 39 -Nx 1736.00 -Ny 683.00 -Nz 0.00 -Ne -1.000000 -Nl RTR -Nw --- -Ma 0 -Md ffffffff -Ms 1a -Mt 800 -Is 39.255 -Id -1.255 -It AODV -Il 48 -If 0 -Ii 0 -Iv 28 -P aodv -Pt 0x2 -Ph 3 -Pb 1 -Pd 0 -Pds 0 -Ps 40 -Pss 4 -Pc REQUEST 
r -t 1.009314093 -Hs 40 -Hd -2 -Ni 40 -Nx 1474.00 -Ny 516.00 -Nz 0.00 -Ne -1.000000 -Nl MAC -Nw --- -Ma 0 -Md ffffffff -Ms a -Mt 800 -Is 10.255 -Id -1.255 -It AODV -Il 48 -If 0 -Ii 0 -Iv 29 -P aodv -Pt 0x2 -Ph 2 -Pb 1 -Pd 0 -Pds 0 -Ps 40 -Pss 4 -Pc REQUEST 
r -t 1.009314207 -Hs 16 -Hd -2 -Ni 16 -Nx 1184.00 -Ny 509.00 -Nz 0.00 -Ne -1.000000 -Nl MAC -Nw --- -Ma 0 -Md ffffffff -Ms a -Mt 800 -Is 10.255 -Id -1.255 -It AODV -Il 48 -If 0 -Ii 0 -Iv 29 -P aodv -Pt 0x2 -Ph 2 -Pb 1 -Pd 0 -Pds 0 -Ps 40 -Pss 4 -Pc REQUEST 
r -t 1.009314217 -Hs 11 -Hd -2 -Ni 11 -Nx 1558.00 -Ny 233.00 -Nz 0.00 -Ne -1.000000 -Nl MAC -Nw --- -Ma 0 -Md ffffffff -Ms a -Mt 800 -Is 10.255 -Id -1.255 -It AODV -Il 48 -If 0 -Ii 0 -Iv 29 -P aodv -Pt 0x2 -Ph 2 -Pb 1 -Pd 0 -Pds 0 -Ps 40 -Pss 4 -Pc REQUEST 
r -t 1.009314234 -Hs 9 -Hd -2 -Ni 9 -Nx 1148.00 -Ny 240.00 -Nz 0.00 -Ne -1.000000 -Nl MAC -Nw --- -Ma 0 -Md ffffffff -Ms a -Mt 800 -Is 10.255 -Id -1.255 -It AODV -Il 48 -If 0 -Ii 0 -Iv 29 -P aodv -Pt 0x2 -Ph 2 -Pb 1 -Pd 0 -Pds 0 -Ps 40 -Pss 4 -Pc REQUEST 
r -t 1.009339093 -Hs 40 -Hd -2 -Ni 40 -Nx 1474.00 -Ny 516.00 -Nz 0.00 -Ne -1.000000 -Nl RTR -Nw --- -Ma 0 -Md ffffffff -Ms a -Mt 800 -Is 10.255 -Id -1.255 -It AODV -Il 48 -If 0 -Ii 0 -Iv 29 -P aodv -Pt 0x2 -Ph 2 -Pb 1 -Pd 0 -Pds 0 -Ps 40 -Pss 4 -Pc REQUEST 
r -t 1.009339207 -Hs 16 -Hd -2 -Ni 16 -Nx 1184.00 -Ny 509.00 -Nz 0.00 -Ne -1.000000 -Nl RTR -Nw --- -Ma 0 -Md ffffffff -Ms a -Mt 800 -Is 10.255 -Id -1.255 -It AODV -Il 48 -If 0 -Ii 0 -Iv 29 -P aodv -Pt 0x2 -Ph 2 -Pb 1 -Pd 0 -Pds 0 -Ps 40 -Pss 4 -Pc REQUEST 
r -t 1.009339217 -Hs 11 -Hd -2 -Ni 11 -Nx 1558.00 -Ny 233.00 -Nz 0.00 -Ne -1.000000 -Nl RTR -Nw --- -Ma 0 -Md ffffffff -Ms a -Mt 800 -Is 10.255 -Id -1.255 -It AODV -Il 48 -If 0 -Ii 0 -Iv 29 -P aodv -Pt 0x2 -Ph 2 -Pb 1 -Pd 0 -Pds 0 -Ps 40 -Pss 4 -Pc REQUEST 
r -t 1.009339234 -Hs 9 -Hd -2 -Ni 9 -Nx 1148.00 -Ny 240.00 -Nz 0.00 -Ne -1.000000 -Nl RTR -Nw --- -Ma 0 -Md ffffffff -Ms a -Mt 800 -Is 10.255 -Id -1.255 -It AODV -Il 48 -If 0 -Ii 0 -Iv 29 -P aodv -Pt 0x2 -Ph 2 -Pb 1 -Pd 0 -Pds 0 -Ps 40 -Pss 4 -Pc REQUEST 
s -t 1.009674296 -Hs 13 -Hd -2 -Ni 13 -Nx 1771.00 -Ny 265.00 -Nz 0.00 -Ne -1.000000 -Nl RTR -Nw --- -Ma 0 -Md ffffffff -Ms 29 -Mt 800 -Is 13.255 -Id -1.255 -It AODV -Il 48 -If 0 -Ii 0 -Iv 27 -P aodv -Pt 0x2 -Ph 4 -Pb 1 -Pd 0 -Pds 0 -Ps 40 -Pss 4 -Pc REQUEST 
s -t 1.009869100 -Hs 39 -Hd -2 -Ni 39 -Nx 1736.00 -Ny 683.00 -Nz 0.00 -Ne -1.000000 -Nl MAC -Nw --- -Ma 0 -Md ffffffff -Ms 27 -Mt 800 -Is 39.255 -Id -1.255 -It AODV -Il 106 -If 0 -Ii 0 -Iv 28 -P aodv -Pt 0x2 -Ph 3 -Pb 1 -Pd 0 -Pds 0 -Ps 40 -Pss 4 -Pc REQUEST 
s -t 1.009869196 -Hs 47 -Hd -2 -Ni 47 -Nx 1457.00 -Ny 875.00 -Nz 0.00 -Ne -1.000000 -Nl MAC -Nw --- -Ma 0 -Md ffffffff -Ms 2f -Mt 800 -Is 47.255 -Id -1.255 -It AODV -Il 106 -If 0 -Ii 0 -Iv 28 -P aodv -Pt 0x2 -Ph 3 -Pb 1 -Pd 0 -Pds 0 -Ps 40 -Pss 4 -Pc REQUEST 
d -t 1.009869803 -Hs 38 -Hd -2 -Ni 38 -Nx 1628.00 -Ny 864.00 -Nz 0.00 -Ne -1.000000 -Nl MAC -Nw COL -Ma 0 -Md ffffffff -Ms 2f -Mt 800 -Is 47.255 -Id -1.255 -It AODV -Il 106 -If 0 -Ii 0 -Iv 28 -P aodv -Pt 0x2 -Ph 3 -Pb 1 -Pd 0 -Pds 0 -Ps 40 -Pss 4 -Pc REQUEST 
d -t 1.009870335 -Hs 17 -Hd -2 -Ni 17 -Nx 1367.00 -Ny 650.00 -Nz 0.00 -Ne -1.000000 -Nl MAC -Nw COL -Ma 0 -Md ffffffff -Ms 2f -Mt 800 -Is 47.255 -Id -1.255 -It AODV -Il 106 -If 0 -Ii 0 -Iv 28 -P aodv -Pt 0x2 -Ph 3 -Pb 1 -Pd 0 -Pds 0 -Ps 40 -Pss 4 -Pc REQUEST 
s -t 1.010322858 -Hs 37 -Hd -2 -Ni 37 -Nx 1195.00 -Ny 719.00 -Nz 0.00 -Ne -1.000000 -Nl RTR -Nw --- -Ma 0 -Md ffffffff -Ms 11 -Mt 800 -Is 37.255 -Id -1.255 -It AODV -Il 48 -If 0 -Ii 0 -Iv 28 -P aodv -Pt 0x2 -Ph 3 -Pb 1 -Pd 0 -Pds 0 -Ps 40 -Pss 4 -Pc REQUEST 
s -t 1.010431219 -Hs 9 -Hd -2 -Ni 9 -Nx 1148.00 -Ny 240.00 -Nz 0.00 -Ne -1.000000 -Nl RTR -Nw --- -Ma 0 -Md ffffffff -Ms a -Mt 800 -Is 9.255 -Id -1.255 -It AODV -Il 48 -If 0 -Ii 0 -Iv 28 -P aodv -Pt 0x2 -Ph 3 -Pb 1 -Pd 0 -Pds 0 -Ps 40 -Pss 4 -Pc REQUEST 
s -t 1.010440005 -Hs 44 -Hd -2 -Ni 44 -Nx 1309.00 -Ny 968.00 -Nz 0.00 -Ne -1.000000 -Nl RTR -Nw --- -Ma 0 -Md ffffffff -Ms 19 -Mt 800 -Is 44.255 -Id -1.255 -It AODV -Il 48 -If 0 -Ii 0 -Iv 27 -P aodv -Pt 0x2 -Ph 4 -Pb 1 -Pd 0 -Pds 0 -Ps 40 -Pss 4 -Pc REQUEST 
r -t 1.010717461 -Hs 18 -Hd -2 -Ni 18 -Nx 1758.00 -Ny 577.00 -Nz 0.00 -Ne -1.000000 -Nl MAC -Nw --- -Ma 0 -Md ffffffff -Ms 27 -Mt 800 -Is 39.255 -Id -1.255 -It AODV -Il 48 -If 0 -Ii 0 -Iv 28 -P aodv -Pt 0x2 -Ph 3 -Pb 1 -Pd 0 -Pds 0 -Ps 40 -Pss 4 -Pc REQUEST 
r -t 1.010717522 -Hs 25 -Hd -2 -Ni 25 -Nx 1460.00 -Ny 777.00 -Nz 0.00 -Ne -1.000000 -Nl MAC -Nw --- -Ma 0 -Md ffffffff -Ms 2f -Mt 800 -Is 47.255 -Id -1.255 -It AODV -Il 48 -If 0 -Ii 0 -Iv 28 -P aodv -Pt 0x2 -Ph 3 -Pb 1 -Pd 0 -Pds 0 -Ps 40 -Pss 4 -Pc REQUEST 
r -t 1.010717627 -Hs 35 -Hd -2 -Ni 35 -Nx 1329.00 -Ny 856.00 -Nz 0.00 -Ne -1.000000 -Nl MAC -Nw --- -Ma 0 -Md ffffffff -Ms 2f -Mt 800 -Is 47.255 -Id -1.255 -It AODV -Il 48 -If 0 -Ii 0 -Iv 28 -P aodv -Pt 0x2 -Ph 3 -Pb 1 -Pd 0 -Pds 0 -Ps 40 -Pss 4 -Pc REQUEST 
r -t 1.010717653 -Hs 19 -Hd -2 -Ni 19 -Nx 1779.00 -Ny 843.00 -Nz 0.00 -Ne -1.000000 -Nl MAC -Nw --- -Ma 0 -Md ffffffff -Ms 27 -Mt 800 -Is 39.255 -Id -1.255 -It AODV -Il 48 -If 0 -Ii 0 -Iv 28 -P aodv -Pt 0x2 -Ph 3 -Pb 1 -Pd 0 -Pds 0 -Ps 40 -Pss 4 -Pc REQUEST 
r -t 1.010717664 -Hs 26 -Hd -2 -Ni 26 -Nx 1637.00 -Ny 546.00 -Nz 0.00 -Ne -1.000000 -Nl MAC -Nw --- -Ma 0 -Md ffffffff -Ms 27 -Mt 800 -Is 39.255 -Id -1.255 -It AODV -Il 48 -If 0 -Ii 0 -Iv 28 -P aodv -Pt 0x2 -Ph 3 -Pb 1 -Pd 0 -Pds 0 -Ps 40 -Pss 4 -Pc REQUEST 