s 1.000000000 _40_ AGT  --- 0 cbr 1000 [0 0 0 0] ------- [40:0 0:0 32 0] [0] 0 0
r 1.000000000 _40_ RTR  --- 0 cbr 1000 [0 0 0 0] ------- [40:0 0:0 32 0] [0] 0 0
s 1.000000000 _40_ RTR  --- 0 AODV 48 [0 0 0 0] ------- [40:255 -1:255 30 0] [0x2 1 1 [0 0] [40 4]] (REQUEST)
s 1.000535000 _40_ MAC  --- 0 AODV 106 [0 ffffffff 28 800] ------- [40:255 -1:255 30 0] [0x2 1 1 [0 0] [40 4]] (REQUEST)
r 1.001383552 _26_ MAC  --- 0 AODV 48 [0 ffffffff 28 800] ------- [40:255 -1:255 30 0] [0x2 1 1 [0 0] [40 4]] (REQUEST)
r 1.001383572 _17_ MAC  --- 0 AODV 48 [0 ffffffff 28 800] ------- [40:255 -1:255 30 0] [0x2 1 1 [0 0] [40 4]] (REQUEST)
r 1.001383659 _10_ MAC  --- 0 AODV 48 [0 ffffffff 28 800] ------- [40:255 -1:255 30 0] [0x2 1 1 [0 0] [40 4]] (REQUEST)
r 1.001408552 _26_ RTR  --- 0 AODV 48 [0 ffffffff 28 800] ------- [40:255 -1:255 30 0] [0x2 1 1 [0 0] [40 4]] (REQUEST)
r 1.001408572 _17_ RTR  --- 0 AODV 48 [0 ffffffff 28 800] ------- [40:255 -1:255 30 0] [0x2 1 1 [0 0] [40 4]] (REQUEST)
r 1.001408659 _10_ RTR  --- 0 AODV 48 [0 ffffffff 28 800] ------- [40:255 -1:255 30 0] [0x2 1 1 [0 0] [40 4]] (REQUEST)
s 1.001550599 _26_ RTR  --- 0 AODV 48 [0 ffffffff 28 800] ------- [26:255 -1:255 29 0] [0x2 2 1 [0 0] [40 4]] (REQUEST)
s 1.001625599 _26_ MAC  --- 0 AODV 106 [0 ffffffff 1a 800] ------- [26:255 -1:255 29 0] [0x2 2 1 [0 0] [40 4]] (REQUEST)
s 1.002289798 _17_ RTR  --- 0 AODV 48 [0 ffffffff 28 800] ------- [17:255 -1:255 29 0] [0x2 2 1 [0 0] [40 4]] (REQUEST)
r 1.002474015 _18_ MAC  --- 0 AODV 48 [0 ffffffff 1a 800] ------- [26:255 -1:255 29 0] [0x2 2 1 [0 0] [40 4]] (REQUEST)
r 1.002474152 _40_ MAC  --- 0 AODV 48 [0 ffffffff 1a 800] ------- [26:255 -1:255 29 0] [0x2 2 1 [0 0] [40 4]] (REQUEST)
r 1.002474162 _39_ MAC  --- 0 AODV 48 [0 ffffffff 1a 800] ------- [26:255 -1:255 29 0] [0x2 2 1 [0 0] [40 4]] (REQUEST)
r 1.002474315 _41_ MAC  --- 0 AODV 48 [0 ffffffff 1a 800] ------- [26:255 -1:255 29 0] [0x2 2 1 [0 0] [40 4]] (REQUEST)
r 1.002499015 _18_ RTR  --- 0 AODV 48 [0 ffffffff 1a 800] ------- [26:255 -1:255 29 0] [0x2 2 1 [0 0] [40 4]] (REQUEST)
r 1.002499152 _40_ RTR  --- 0 AODV 48 [0 ffffffff 1a 800] ------- [26:255 -1:255 29 0] [0x2 2 1 [0 0] [40 4]] (REQUEST)
r 1.002499162 _39_ RTR  --- 0 AODV 48 [0 ffffffff 1a 800] ------- [26:255 -1:255 29 0] [0x2 2 1 [0 0] [40 4]] (REQUEST)
r 1.002499315 _41_ RTR  --- 0 AODV 48 [0 ffffffff 1a 800] ------- [26:255 -1:255 29 0] [0x2 2 1 [0 0] [40 4]] (REQUEST)
s 1.003048564 _17_ MAC  --- 0 AODV 106 [0 ffffffff 11 800] ------- [17:255 -1:255 29 0] [0x2 2 1 [0 0] [40 4]] (REQUEST)
r 1.003897006 _46_ MAC  --- 0 AODV 48 [0 ffffffff 11 800] ------- [17:255 -1:255 29 0] [0x2 2 1 [0 0] [40 4]] (REQUEST)
r 1.003897088 _25_ MAC  --- 0 AODV 48 [0 ffffffff 11 800] ------- [17:255 -1:255 29 0] [0x2 2 1 [0 0] [40 4]] (REQUEST)
r 1.003897135 _40_ MAC  --- 0 AODV 48 [0 ffffffff 11 800] ------- [17:255 -1:255 29 0] [0x2 2 1 [0 0] [40 4]] (REQUEST)
r 1.003897181 _37_ MAC  --- 0 AODV 48 [0 ffffffff 11 800] ------- [17:255 -1:255 29 0] [0x2 2 1 [0 0] [40 4]] (REQUEST)
r 1.003897262 _35_ MAC  --- 0 AODV 48 [0 ffffffff 11 800] ------- [17:255 -1:255 29 0] [0x2 2 1 [0 0] [40 4]] (REQUEST)
r 1.003897334 _16_ MAC  --- 0 AODV 48 [0 ffffffff 11 800] ------- [17:255 -1:255 29 0] [0x2 2 1 [0 0] [40 4]] (REQUEST)
r 1.003897371 _47_ MAC  --- 0 AODV 48 [0 ffffffff 11 800] ------- [17:255 -1:255 29 0] [0x2 2 1 [0 0] [40 4]] (REQUEST)
r 1.003922006 _46_ RTR  --- 0 AODV 48 [0 ffffffff 11 800] ------- [17:255 -1:255 29 0] [0x2 2 1 [0 0] [40 4]] (REQUEST)
r 1.003922088 _25_ RTR  --- 0 AODV 48 [0 ffffffff 11 800] ------- [17:255 -1:255 29 0] [0x2 2 1 [0 0] [40 4]] (REQUEST)
r 1.003922135 _40_ RTR  --- 0 AODV 48 [0 ffffffff 11 800] ------- [17:255 -1:255 29 0] [0x2 2 1 [0 0] [40 4]] (REQUEST)
r 1.003922181 _37_ RTR  --- 0 AODV 48 [0 ffffffff 11 800] ------- [17:255 -1:255 29 0] [0x2 2 1 [0 0] [40 4]] (REQUEST)
r 1.003922262 _35_ RTR  --- 0 AODV 48 [0 ffffffff 11 800] ------- [17:255 -1:255 29 0] [0x2 2 1 [0 0] [40 4]] (REQUEST)
r 1.003922334 _16_ RTR  --- 0 AODV 48 [0 ffffffff 11 800] ------- [17:255 -1:255 29 0] [0x2 2 1 [0 0] [40 4]] (REQUEST)
r 1.003922371 _47_ RTR  --- 0 AODV 48 [0 ffffffff 11 800] ------- [17:255 -1:255 29 0] [0x2 2 1 [0 0] [40 4]] (REQUEST)
s 1.004350034 _25_ RTR  --- 0 AODV 48 [0 ffffffff 11 800] ------- [25:255 -1:255 28 0] [0x2 3 1 [0 0] [40 4]] (REQUEST)
s 1.004845033 _18_ RTR  --- 0 AODV 48 [0 ffffffff 1a 800] ------- [18:255 -1:255 28 0] [0x2 3 1 [0 0] [40 4]] (REQUEST)
s 1.004905034 _25_ MAC  --- 0 AODV 106 [0 ffffffff 19 800] ------- [25:255 -1:255 28 0] [0x2 3 1 [0 0] [40 4]] (REQUEST)
s 1.005060344 _35_ RTR  --- 0 AODV 48 [0 ffffffff 11 800] ------- [35:255 -1:255 28 0] [0x2 3 1 [0 0] [40 4]] (REQUEST)
s 1.005563460 _46_ RTR  --- 0 AODV 48 [0 ffffffff 11 800] ------- [46:255 -1:255 28 0] [0x2 3 1 [0 0] [40 4]] (REQUEST)
s 1.005590106 _41_ RTR  --- 0 AODV 48 [0 ffffffff 1a 800] ------- [41:255 -1:255 28 0] [0x2 3 1 [0 0] [40 4]] (REQUEST)
r 1.005753361 _47_ MAC  --- 0 AODV 48 [0 ffffffff 19 800] ------- [25:255 -1:255 28 0] [0x2 3 1 [0 0] [40 4]] (REQUEST)
r 1.005753494 _46_ MAC  --- 0 AODV 48 [0 ffffffff 19 800] ------- [25:255 -1:255 28 0] [0x2 3 1 [0 0] [40 4]] (REQUEST)
r 1.005753544 _35_ MAC  --- 0 AODV 48 [0 ffffffff 19 800] ------- [25:255 -1:255 28 0] [0x2 3 1 [0 0] [40 4]] (REQUEST)
r 1.005753559 _17_ MAC  --- 0 AODV 48 [0 ffffffff 19 800] ------- [25:255 -1:255 28 0] [0x2 3 1 [0 0] [40 4]] (REQUEST)
r 1.005753664 _38_ MAC  --- 0 AODV 48 [0 ffffffff 19 800] ------- [25:255 -1:255 28 0] [0x2 3 1 [0 0] [40 4]] (REQUEST)
r 1.005753845 _44_ MAC  --- 0 AODV 48 [0 ffffffff 19 800] ------- [25:255 -1:255 28 0] [0x2 3 1 [0 0] [40 4]] (REQUEST)
r 1.005778361 _47_ RTR  --- 0 AODV 48 [0 ffffffff 19 800] ------- [25:255 -1:255 28 0] [0x2 3 1 [0 0] [40 4]] (REQUEST)
r 1.005778494 _46_ RTR  --- 0 AODV 48 [0 ffffffff 19 800] ------- [25:255 -1:255 28 0] [0x2 3 1 [0 0] [40 4]] (REQUEST)
r 1.005778544 _35_ RTR  --- 0 AODV 48 [0 ffffffff 19 800] ------- [25:255 -1:255 28 0] [0x2 3 1 [0 0] [40 4]] (REQUEST)
r 1.005778559 _17_ RTR  --- 0 AODV 48 [0 ffffffff 19 800] ------- [25:255 -1:255 28 0] [0x2 3 1 [0 0] [40 4]] (REQUEST)
r 1.005778664 _38_ RTR  --- 0 AODV 48 [0 ffffffff 19 800] ------- [25:255 -1:255 28 0] [0x2 3 1 [0 0] [40 4]] (REQUEST)
r 1.005778845 _44_ RTR  --- 0 AODV 48 [0 ffffffff 19 800] ------- [25:255 -1:255 28 0] [0x2 3 1 [0 0] [40 4]] (REQUEST)
s 1.005820393 _10_ RTR  --- 0 AODV 48 [0 ffffffff 28 800] ------- [10:255 -1:255 29 0] [0x2 2 1 [0 0] [40 4]] (REQUEST)
s 1.006003494 _46_ MAC  --- 0 AODV 106 [0 ffffffff 2e 800] ------- [46:255 -1:255 28 0] [0x2 3 1 [0 0] [40 4]] (REQUEST)
s 1.006388715 _41_ MAC  --- 0 AODV 106 [0 ffffffff 29 800] ------- [41:255 -1:255 28 0] [0x2 3 1 [0 0] [40 4]] (REQUEST)
r 1.006851765 _35_ MAC  --- 0 AODV 48 [0 ffffffff 2e 800] ------- [46:255 -1:255 28 0] [0x2 3 1 [0 0] [40 4]] (REQUEST)
r 1.006851937 _17_ MAC  --- 0 AODV 48 [0 ffffffff 2e 800] ------- [46:255 -1:255 28 0] [0x2 3 1 [0 0] [40 4]] (REQUEST)
r 1.006851954 _25_ MAC  --- 0 AODV 48 [0 ffffffff 2e 800] ------- [46:255 -1:255 28 0] [0x2 3 1 [0 0] [40 4]] (REQUEST)
r 1.006851957 _37_ MAC  --- 0 AODV 48 [0 ffffffff 2e 800] ------- [46:255 -1:255 28 0] [0x2 3 1 [0 0] [40 4]] (REQUEST)
r 1.006851987 _45_ MAC  --- 0 AODV 48 [0 ffffffff 2e 800] ------- [46:255 -1:255 28 0] [0x2 3 1 [0 0] [40 4]] (REQUEST)
r 1.006852054 _47_ MAC  --- 0 AODV 48 [0 ffffffff 2e 800] ------- [46:255 -1:255 28 0] [0x2 3 1 [0 0] [40 4]] (REQUEST)
r 1.006852139 _44_ MAC  --- 0 AODV 48 [0 ffffffff 2e 800] ------- [46:255 -1:255 28 0] [0x2 3 1 [0 0] [40 4]] (REQUEST)
r 1.006876765 _35_ RTR  --- 0 AODV 48 [0 ffffffff 2e 800] ------- [46:255 -1:255 28 0] [0x2 3 1 [0 0] [40 4]] (REQUEST)
r 1.006876937 _17_ RTR  --- 0 AODV 48 [0 ffffffff 2e 800] ------- [46:255 -1:255 28 0] [0x2 3 1 [0 0] [40 4]] (REQUEST)
r 1.006876954 _25_ RTR  --- 0 AODV 48 [0 ffffffff 2e 800] ------- [46:255 -1:255 28 0] [0x2 3 1 [0 0] [40 4]] (REQUEST)
r 1.006876957 _37_ RTR  --- 0 AODV 48 [0 ffffffff 2e 800] ------- [46:255 -1:255 28 0] [0x2 3 1 [0 0] [40 4]] (REQUEST)
r 1.006876987 _45_ RTR  --- 0 AODV 48 [0 ffffffff 2e 800] ------- [46:255 -1:255 28 0] [0x2 3 1 [0 0] [40 4]] (REQUEST)
r 1.006877054 _47_ RTR  --- 0 AODV 48 [0 ffffffff 2e 800] ------- [46:255 -1:255 28 0] [0x2 3 1 [0 0] [40 4]] (REQUEST)
r 1.006877139 _44_ RTR  --- 0 AODV 48 [0 ffffffff 2e 800] ------- [46:255 -1:255 28 0] [0x2 3 1 [0 0] [40 4]] (REQUEST)
s 1.007021765 _35_ MAC  --- 0 AODV 106 [0 ffffffff 23 800] ------- [35:255 -1:255 28 0] [0x2 3 1 [0 0] [40 4]] (REQUEST)
r 1.007237039 _13_ MAC  --- 0 AODV 48 [0 ffffffff 29 800] ------- [41:255 -1:255 28 0] [0x2 3 1 [0 0] [40 4]] (REQUEST)
D 1.007237430 _26_ MAC  COL 0 AODV 106 [0 ffffffff 29 800] ------- [41:255 -1:255 28 0] [0x2 3 1 [0 0] [40 4]] (REQUEST)
r 1.007237446 _11_ MAC  --- 0 AODV 48 [0 ffffffff 29 800] ------- [41:255 -1:255 28 0] [0x2 3 1 [0 0] [40 4]] (REQUEST)
D 1.007237451 _18_ MAC  COL 0 AODV 106 [0 ffffffff 29 800] ------- [41:255 -1:255 28 0] [0x2 3 1 [0 0] [40 4]] (REQUEST)
r 1.007262039 _13_ RTR  --- 0 AODV 48 [0 ffffffff 29 800] ------- [41:255 -1:255 28 0] [0x2 3 1 [0 0] [40 4]] (REQUEST)
r 1.007262446 _11_ RTR  --- 0 AODV 48 [0 ffffffff 29 800] ------- [41:255 -1:255 28 0] [0x2 3 1 [0 0] [40 4]] (REQUEST)
r 1.007870036 _46_ MAC  --- 0 AODV 48 [0 ffffffff 23 800] ------- [35:255 -1:255 28 0] [0x2 3 1 [0 0] [40 4]] (REQUEST)
r 1.007870144 _44_ MAC  --- 0 AODV 48 [0 ffffffff 23 800] ------- [35:255 -1:255 28 0] [0x2 3 1 [0 0] [40 4]] (REQUEST)
r 1.007870173 _45_ MAC  --- 0 AODV 48 [0 ffffffff 23 800] ------- [35:255 -1:255 28 0] [0x2 3 1 [0 0] [40 4]] (REQUEST)
r 1.007870196 _47_ MAC  --- 0 AODV 48 [0 ffffffff 23 800] ------- [35:255 -1:255 28 0] [0x2 3 1 [0 0] [40 4]] (REQUEST)
r 1.007870275 _25_ MAC  --- 0 AODV 48 [0 ffffffff 23 800] ------- [35:255 -1:255 28 0] [0x2 3 1 [0 0] [40 4]] (REQUEST)
r 1.007870404 _37_ MAC  --- 0 AODV 48 [0 ffffffff 23 800] ------- [35:255 -1:255 28 0] [0x2 3 1 [0 0] [40 4]] (REQUEST)
r 1.007870463 _17_ MAC  --- 0 AODV 48 [0 ffffffff 23 800] ------- [35:255 -1:255 28 0] [0x2 3 1 [0 0] [40 4]] (REQUEST)
r 1.007895036 _46_ RTR  --- 0 AODV 48 [0 ffffffff 23 800] ------- [35:255 -1:255 28 0] [0x2 3 1 [0 0] [40 4]] (REQUEST)
r 1.007895144 _44_ RTR  --- 0 AODV 48 [0 ffffffff 23 800] ------- [35:255 -1:255 28 0] [0x2 3 1 [0 0] [40 4]] (REQUEST)
r 1.007895173 _45_ RTR  --- 0 AODV 48 [0 ffffffff 23 800] ------- [35:255 -1:255 28 0] [0x2 3 1 [0 0] [40 4]] (REQUEST)
r 1.007895196 _47_ RTR  --- 0 AODV 48 [0 ffffffff 23 800] ------- [35:255 -1:255 28 0] [0x2 3 1 [0 0] [40 4]] (REQUEST)
r 1.007895275 _25_ RTR  --- 0 AODV 48 [0 ffffffff 23 800] ------- [35:255 -1:255 28 0] [0x2 3 1 [0 0] [40 4]] (REQUEST)
r 1.007895404 _37_ RTR  --- 0 AODV 48 [0 ffffffff 23 800] ------- [35:255 -1:255 28 0] [0x2 3 1 [0 0] [40 4]] (REQUEST)
r 1.007895463 _17_ RTR  --- 0 AODV 48 [0 ffffffff 23 800] ------- [35:255 -1:255 28 0] [0x2 3 1 [0 0] [40 4]] (REQUEST)
s 1.008158939 _47_ RTR  --- 0 AODV 48 [0 ffffffff 11 800] ------- [47:255 -1:255 28 0] [0x2 3 1 [0 0] [40 4]] (REQUEST)
s 1.008465434 _10_ MAC  --- 0 AODV 106 [0 ffffffff a 800] ------- [10:255 -1:255 29 0] [0x2 2 1 [0 0] [40 4]] (REQUEST)
s 1.008887814 _39_ RTR  --- 0 AODV 48 [0 ffffffff 1a 800] ------- [39:255 -1:255 28 0] [0x2 3 1 [0 0] [40 4]] (REQUEST)
r 1.009314093 _40_ MAC  --- 0 AODV 48 [0 ffffffff a 800] ------- [10:255 -1:255 29 0] [0x2 2 1 [0 0] [40 4]] (REQUEST)
r 1.009314207 _16_ MAC  --- 0 AODV 48 [0 ffffffff a 800] ------- [10:255 -1:255 29 0] [0x2 2 1 [0 0] [40 4]] (REQUEST)
r 1.009314217 _11_ MAC  --- 0 AODV 48 [0 ffffffff a 800] ------- [10:255 -1:255 29 0] [0x2 2 1 [0 0] [40 4]] (REQUEST)
r 1.009314234 _9_ MAC  --- 0 AODV 48 [0 ffffffff a 800] ------- [10:255 -1:255 29 0] [0x2 2 1 [0 0] [40 4]] (REQUEST)
r 1.009339093 _40_ RTR  --- 0 AODV 48 [0 ffffffff a 800] ------- [10:255 -1:255 29 0] [0x2 2 1 [0 0] [40 4]] (REQUEST)
r 1.009339207 _16_ RTR  --- 0 AODV 48 [0 ffffffff a 800] ------- [10:255 -1:255 29 0] [0x2 2 1 [0 0] [40 4]] (REQUEST)
r 1.009339217 _11_ RTR  --- 0 AODV 48 [0 ffffffff a 800] ------- [10:255 -1:255 29 0] [0x2 2 1 [0 0] [40 4]] (REQUEST)
r 1.009339234 _9_ RTR  --- 0 AODV 48 [0 ffffffff a 800] ------- [10:255 -1:255 29 0] [0x2 2 1 [0 0] [40 4]] (REQUEST)
s 1.009674296 _13_ RTR  --- 0 AODV 48 [0 ffffffff 29 800] ------- [13:255 -1:255 27 0] [0x2 4 1 [0 0] [40 4]] (REQUEST)
s 1.009869100 _39_ MAC  --- 0 AODV 106 [0 ffffffff 27 800] ------- [39:255 -1:255 28 0] [0x2 3 1 [0 0] [40 4]] (REQUEST)
s 1.009869196 _47_ MAC  --- 0 AODV 106 [0 ffffffff 2f 800] ------- [47:255 -1:255 28 0] [0x2 3 1 [0 0] [40 4]] (REQUEST)
D 1.009869803 _38_ MAC  COL 0 AODV 106 [0 ffffffff 2f 800] ------- [47:255 -1:255 28 0] [0x2 3 1 [0 0] [40 4]] (REQUEST)
D 1.009870335 _17_ MAC  COL 0 AODV 106 [0 ffffffff 2f 800] ------- [47:255 -1:255 28 0] [0x2 3 1 [0 0] [40 4]] (REQUEST)
s 1.010322858 _37_ RTR  --- 0 AODV 48 [0 ffffffff 11 800] ------- [37:255 -1:255 28 0] [0x2 3 1 [0 0] [40 4]] (REQUEST)
s 1.010431219 _9_ RTR  --- 0 AODV 48 [0 ffffffff a 800] ------- [9:255 -1:255 28 0] [0x2 3 1 [0 0] [40 4]] (REQUEST)
s 1.010440005 _44_ RTR  --- 0 AODV 48 [0 ffffffff 19 800] ------- [44:255 -1:255 27 0] [0x2 4 1 [0 0] [40 4]] (REQUEST)
r 1.010717461 _18_ MAC  --- 0 AODV 48 [0 ffffffff 27 800] ------- [39:255 -1:255 28 0] [0x2 3 1 [0 0] [40 4]] (REQUEST)
r 1.010717522 _25_ MAC  --- 0 AODV 48 [0 ffffffff 2f 800] ------- [47:255 -1:255 28 0] [0x2 3 1 [0 0] [40 4]] (REQUEST)
r 1.010717627 _35_ MAC  --- 0 AODV 48 [0 ffffffff 2f 800] ------- [47:255 -1:255 28 0] [0x2 3 1 [0 0] [40 4]] (REQUEST)
r 1.010717653 _19_ MAC  --- 0 AODV 48 [0 ffffffff 27 800] ------- [39:255 -1:255 28 0] [0x2 3 1 [0 0] [40 4]] (REQUEST)
r 1.010717664 _26_ MAC  --- 0 AODV 48 [0 ffffffff 27 800] ------- [39:255 -1:255 28 0] [0x2 3 1 [0 0] [40 4]] (REQUEST)
r 1.010717756 _46_ MAC  --- 0 AODV 48 [0 ffffffff 2f 800] ------- [47:255 -1:255 28 0] [0x2 3 1 [0 0] [40 4]] (REQUEST)
r 1.010717778 _44_ MAC  --- 0 AODV 48 [0 ffffffff 2f 800] ------- [47:255 -1:255 28 0] [0x2 3 1 [0 0] [40 4]] (REQUEST)
D 1.010717803 _38_ MAC  COL 0 AODV 106 [0 ffffffff 27 800] ------- [39:255 -1:255 28 0] [0x2 3 1 [0 0] [40 4]] (REQUEST)
r 1.010742461 _18_ RTR  --- 0 AODV 48 [0 ffffffff 27 800] ------- [39:255 -1:255 28 0] [0x2 3 1 [0 0] [40 4]] (REQUEST)
r 1.010742522 _25_ RTR  --- 0 AODV 48 [0 ffffffff 2f 800] ------- [47:255 -1:255 28 0] [0x2 3 1 [0 0] [40 4]] (REQUEST)
r 1.010742627 _35_ RTR  --- 0 AODV 48 [0 ffffffff 2f 800] ------- [47:255 -1:255 28 0] [0x2 3 1 [0 0] [40 4]] (REQUEST)
r 1.010742653 _19_ RTR  --- 0 AODV 48 [0 ffffffff 27 800] ------- [39:255 -1:255 28 0] [0x2 3 1 [0 0] [40 4]] (REQUEST)
r 1.010742664 _26_ RTR  --- 0 AODV 48 [0 ffffffff 27 800] ------- [39:255 -1:255 28 0] [0x2 3 1 [0 0] [40 4]] (REQUEST)
r 1.010742756 _46_ RTR  --- 0 AODV 48 [0 ffffffff 2f 800] ------- [47:255 -1:255 28 0] [0x2 3 1 [0 0] [40 4]] (REQUEST)
r 1.010742778 _44_ RTR  --- 0 AODV 48 [0 ffffffff 2f 800] ------- [47:255 -1:255 28 0] [0x2 3 1 [0 0] [40 4]] (REQUEST)
s 1.010965152 _38_ RTR  --- 0 AODV 48 [0 ffffffff 19 800] ------- [38:255 -1:255 27 0] [0x2 4 1 [0 0] [40 4]] (REQUEST)
s 1.011026219 _9_ MAC  --- 0 AODV 106 [0 ffffffff 9 800] ------- [9:255 -1:255 28 0] [0x2 3 1 [0 0] [40 4]] (REQUEST)
s 1.011152607 _18_ MAC  --- 0 AODV 106 [0 ffffffff 12 800] ------- [18:255 -1:255 28 0] [0x2 3 1 [0 0] [40 4]] (REQUEST)
s 1.011326679 _19_ RTR  --- 0 AODV 48 [0 ffffffff 27 800] ------- [19:255 -1:255 27 0] [0x2 4 1 [0 0] [40 4]] (REQUEST)
s 1.011352812 _44_ MAC  --- 0 AODV 106 [0 ffffffff 2c 800] ------- [44:255 -1:255 27 0] [0x2 4 1 [0 0] [40 4]] (REQUEST)
r 1.011874616 _42_ MAC  --- 0 AODV 48 [0 ffffffff 9 800] ------- [9:255 -1:255 28 0] [0x2 3 1 [0 0] [40 4]] (REQUEST)
r 1.011874705 _55_ MAC  --- 0 AODV 48 [0 ffffffff 9 800] ------- [9:255 -1:255 28 0] [0x2 3 1 [0 0] [40 4]] (REQUEST)
r 1.011874812 _52_ MAC  --- 0 AODV 48 [0 ffffffff 9 800] ------- [9:255 -1:255 28 0] [0x2 3 1 [0 0] [40 4]] (REQUEST)
r 1.011874982 _8_ MAC  --- 0 AODV 48 [0 ffffffff 9 800] ------- [9:255 -1:255 28 0] [0x2 3 1 [0 0] [40 4]] (REQUEST)
r 1.011875018 _10_ MAC  --- 0 AODV 48 [0 ffffffff 9 800] ------- [9:255 -1:255 28 0] [0x2 3 1 [0 0] [40 4]] (REQUEST)
r 1.011899616 _42_ RTR  --- 0 AODV 48 [0 ffffffff 9 800] ------- [9:255 -1:255 28 0] [0x2 3 1 [0 0] [40 4]] (REQUEST)
r 1.011899705 _55_ RTR  --- 0 AODV 48 [0 ffffffff 9 800] ------- [9:255 -1:255 28 0] [0x2 3 1 [0 0] [40 4]] (REQUEST)
r 1.011899812 _52_ RTR  --- 0 AODV 48 [0 ffffffff 9 800] ------- [9:255 -1:255 28 0] [0x2 3 1 [0 0] [40 4]] (REQUEST)
r 1.011899982 _8_ RTR  --- 0 AODV 48 [0 ffffffff 9 800] ------- [9:255 -1:255 28 0] [0x2 3 1 [0 0] [40 4]] (REQUEST)
r 1.011900018 _10_ RTR  --- 0 AODV 48 [0 ffffffff 9 800] ------- [9:255 -1:255 28 0] [0x2 3 1 [0 0] [40 4]] (REQUEST)
r 1.012000968 _39_ MAC  --- 0 AODV 48 [0 ffffffff 12 800] ------- [18:255 -1:255 28 0] [0x2 3 1 [0 0] [40 4]] (REQUEST)
r 1.012001024 _26_ MAC  --- 0 AODV 48 [0 ffffffff 12 800] ------- [18:255 -1:255 28 0] [0x2 3 1 [0 0] [40 4]] (REQUEST)
r 1.012001343 _41_ MAC  --- 0 AODV 48 [0 ffffffff 12 800] ------- [18:255 -1:255 28 0] [0x2 3 1 [0 0] [40 4]] (REQUEST)
r 1.012025968 _39_ RTR  --- 0 AODV 48 [0 ffffffff 12 800] ------- [18:255 -1:255 28 0] [0x2 3 1 [0 0] [40 4]] (REQUEST)
r 1.012026024 _26_ RTR  --- 0 AODV 48 [0 ffffffff 12 800] ------- [18:255 -1:255 28 0] [0x2 3 1 [0 0] [40 4]] (REQUEST)
r 1.012026343 _41_ RTR  --- 0 AODV 48 [0 ffffffff 12 800] ------- [18:255 -1:255 28 0] [0x2 3 1 [0 0] [40 4]] (REQUEST)
D 1.012201191 _35_ MAC  COL 0 AODV 106 [0 ffffffff 2c 800] ------- [44:255 -1:255 27 0] [0x2 4 1 [0 0] [40 4]] (REQUEST)
r 1.012201288 _45_ MAC  --- 0 AODV 48 [0 ffffffff 2c 800] ------- [44:255 -1:255 27 0] [0x2 4 1 [0 0] [40 4]] (REQUEST)
D 1.012201394 _47_ MAC  COL 0 AODV 106 [0 ffffffff 2c 800] ------- [44:255 -1:255 27 0] [0x2 4 1 [0 0] [40 4]] (REQUEST)
D 1.012201456 _46_ MAC  COL 0 AODV 106 [0 ffffffff 2c 800] ------- [44:255 -1:255 27 0] [0x2 4 1 [0 0] [40 4]] (REQUEST)
D 1.012201623 _25_ MAC  COL 0 AODV 106 [0 ffffffff 2c 800] ------- [44:255 -1:255 27 0] [0x2 4 1 [0 0] [40 4]] (REQUEST)
r 1.012226288 _45_ RTR  --- 0 AODV 48 [0 ffffffff 2c 800] ------- [44:255 -1:255 27 0] [0x2 4 1 [0 0] [40 4]] (REQUEST)
s 1.012475648 _13_ MAC  --- 0 AODV 106 [0 ffffffff d 800] ------- [13:255 -1:255 27 0] [0x2 4 1 [0 0] [40 4]] (REQUEST)
s 1.012519611 _16_ RTR  --- 0 AODV 48 [0 ffffffff 11 800] ------- [16:255 -1:255 28 0] [0x2 3 1 [0 0] [40 4]] (REQUEST)
s 1.012715724 _37_ MAC  --- 0 AODV 106 [0 ffffffff 25 800] ------- [37:255 -1:255 28 0] [0x2 3 1 [0 0] [40 4]] (REQUEST)
s 1.012715930 _38_ MAC  --- 0 AODV 106 [0 ffffffff 26 800] ------- [38:255 -1:255 27 0] [0x2 4 1 [0 0] [40 4]] (REQUEST)
D 1.012716629 _25_ MAC  COL 0 AODV 106 [0 ffffffff 26 800] ------- [38:255 -1:255 27 0] [0x2 4 1 [0 0] [40 4]] (REQUEST)
D 1.012716927 _35_ MAC  COL 0 AODV 106 [0 ffffffff 25 800] ------- [37:255 -1:255 28 0] [0x2 3 1 [0 0] [40 4]] (REQUEST)
s 1.013130651 _42_ RTR  --- 0 AODV 48 [0 ffffffff 9 800] ------- [42:255 -1:255 27 0] [0x2 4 1 [0 0] [40 4]] (REQUEST)
r 1.013323973 _41_ MAC  --- 0 AODV 48 [0 ffffffff d 800] ------- [13:255 -1:255 27 0] [0x2 4 1 [0 0] [40 4]] (REQUEST)
r 1.013324336 _14_ MAC  --- 0 AODV 48 [0 ffffffff d 800] ------- [13:255 -1:255 27 0] [0x2 4 1 [0 0] [40 4]] (REQUEST)
r 1.013324366 _11_ MAC  --- 0 AODV 48 [0 ffffffff d 800] ------- [13:255 -1:255 27 0] [0x2 4 1 [0 0] [40 4]] (REQUEST)
r 1.013348973 _41_ RTR  --- 0 AODV 48 [0 ffffffff d 800] ------- [13:255 -1:255 27 0] [0x2 4 1 [0 0] [40 4]] (REQUEST)
r 1.013349336 _14_ RTR  --- 0 AODV 48 [0 ffffffff d 800] ------- [13:255 -1:255 27 0] [0x2 4 1 [0 0] [40 4]] (REQUEST)
r 1.013349366 _11_ RTR  --- 0 AODV 48 [0 ffffffff d 800] ------- [13:255 -1:255 27 0] [0x2 4 1 [0 0] [40 4]] (REQUEST)
r 1.013564187 _46_ MAC  --- 0 AODV 48 [0 ffffffff 25 800] ------- [37:255 -1:255 28 0] [0x2 3 1 [0 0] [40 4]] (REQUEST)
r 1.013564223 _45_ MAC  --- 0 AODV 48 [0 ffffffff 25 800] ------- [37:255 -1:255 28 0] [0x2 3 1 [0 0] [40 4]] (REQUEST)
r 1.013564244 _36_ MAC  --- 0 AODV 48 [0 ffffffff 25 800] ------- [37:255 -1:255 28 0] [0x2 3 1 [0 0] [40 4]] (REQUEST)
r 1.013564342 _17_ MAC  --- 0 AODV 48 [0 ffffffff 25 800] ------- [37:255 -1:255 28 0] [0x2 3 1 [0 0] [40 4]] (REQUEST)
r 1.013564425 _16_ MAC  --- 0 AODV 48 [0 ffffffff 25 800] ------- [37:255 -1:255 28 0] [0x2 3 1 [0 0] [40 4]] (REQUEST)
r 1.013564438 _19_ MAC  --- 0 AODV 48 [0 ffffffff 26 800] ------- [38:255 -1:255 27 0] [0x2 4 1 [0 0] [40 4]] (REQUEST)
r 1.013564501 _47_ MAC  --- 0 AODV 48 [0 ffffffff 26 800] ------- [38:255 -1:255 27 0] [0x2 4 1 [0 0] [40 4]] (REQUEST)
D 1.013564633 _39_ MAC  COL 0 AODV 106 [0 ffffffff 26 800] ------- [38:255 -1:255 27 0] [0x2 4 1 [0 0] [40 4]] (REQUEST)
r 1.013589187 _46_ RTR  --- 0 AODV 48 [0 ffffffff 25 800] ------- [37:255 -1:255 28 0] [0x2 3 1 [0 0] [40 4]] (REQUEST)
r 1.013589223 _45_ RTR  --- 0 AODV 48 [0 ffffffff 25 800] ------- [37:255 -1:255 28 0] [0x2 3 1 [0 0] [40 4]] (REQUEST)
r 1.013589244 _36_ RTR  --- 0 AODV 48 [0 ffffffff 25 800] ------- [37:255 -1:255 28 0] [0x2 3 1 [0 0] [40 4]] (REQUEST)
r 1.013589342 _17_ RTR  --- 0 AODV 48 [0 ffffffff 25 800] ------- [37:255 -1:255 28 0] [0x2 3 1 [0 0] [40 4]] (REQUEST)
r 1.013589425 _16_ RTR  --- 0 AODV 48 [0 ffffffff 25 800] ------- [37:255 -1:255 28 0] [0x2 3 1 [0 0] [40 4]] (REQUEST)
r 1.013589438 _19_ RTR  --- 0 AODV 48 [0 ffffffff 26 800] ------- [38:255 -1:255 27 0] [0x2 4 1 [0 0] [40 4]] (REQUEST)
r 1.013589501 _47_ RTR  --- 0 AODV 48 [0 ffffffff 26 800] ------- [38:255 -1:255 27 0] [0x2 4 1 [0 0] [40 4]] (REQUEST)
s 1.013624910 _14_ RTR  --- 0 AODV 48 [0 ffffffff d 800] ------- [14:255 -1:255 26 0] [0x2 5 1 [0 0] [40 4]] (REQUEST)
s 1.013834425 _16_ MAC  --- 0 AODV 106 [0 ffffffff 10 800] ------- [16:255 -1:255 28 0] [0x2 3 1 [0 0] [40 4]] (REQUEST)
s 1.013854438 _19_ MAC  --- 0 AODV 106 [0 ffffffff 13 800] ------- [19:255 -1:255 27 0] [0x2 4 1 [0 0] [40 4]] (REQUEST)
s 1.013999910 _14_ MAC  --- 0 AODV 106 [0 ffffffff e 800] ------- [14:255 -1:255 26 0] [0x2 5 1 [0 0] [40 4]] (REQUEST)
s 1.014469749 _52_ RTR  --- 0 AODV 48 [0 ffffffff 9 800] ------- [52:255 -1:255 27 0] [0x2 4 1 [0 0] [40 4]] (REQUEST)
r 1.014683060 _27_ MAC  --- 0 AODV 48 [0 ffffffff 10 800] ------- [16:255 -1:255 28 0] [0x2 3 1 [0 0] [40 4]] (REQUEST)
r 1.014683126 _37_ MAC  --- 0 AODV 48 [0 ffffffff 10 800] ------- [16:255 -1:255 28 0] [0x2 3 1 [0 0] [40 4]] (REQUEST)
r 1.014683195 _17_ MAC  --- 0 AODV 48 [0 ffffffff 10 800] ------- [16:255 -1:255 28 0] [0x2 3 1 [0 0] [40 4]] (REQUEST)
r 1.014683198 _10_ MAC  --- 0 AODV 48 [0 ffffffff 10 800] ------- [16:255 -1:255 28 0] [0x2 3 1 [0 0] [40 4]] (REQUEST)
r 1.014702946 _38_ MAC  --- 0 AODV 48 [0 ffffffff 13 800] ------- [19:255 -1:255 27 0] [0x2 4 1 [0 0] [40 4]] (REQUEST)
r 1.014702990 _39_ MAC  --- 0 AODV 48 [0 ffffffff 13 800] ------- [19:255 -1:255 27 0] [0x2 4 1 [0 0] [40 4]] (REQUEST)
r 1.014708060 _27_ RTR  --- 0 AODV 48 [0 ffffffff 10 800] ------- [16:255 -1:255 28 0] [0x2 3 1 [0 0] [40 4]] (REQUEST)
r 1.014708126 _37_ RTR  --- 0 AODV 48 [0 ffffffff 10 800] ------- [16:255 -1:255 28 0] [0x2 3 1 [0 0] [40 4]] (REQUEST)
r 1.014708195 _17_ RTR  --- 0 AODV 48 [0 ffffffff 10 800] ------- [16:255 -1:255 28 0] [0x2 3 1 [0 0] [40 4]] (REQUEST)
r 1.014708198 _10_ RTR  --- 0 AODV 48 [0 ffffffff 10 800] ------- [16:255 -1:255 28 0] [0x2 3 1 [0 0] [40 4]] (REQUEST)
r 1.014727946 _38_ RTR  --- 0 AODV 48 [0 ffffffff 13 800] ------- [19:255 -1:255 27 0] [0x2 4 1 [0 0] [40 4]] (REQUEST)
r 1.014727990 _39_ RTR  --- 0 AODV 48 [0 ffffffff 13 800] ------- [19:255 -1:255 27 0] [0x2 4 1 [0 0] [40 4]] (REQUEST)
r 1.014848598 _13_ MAC  --- 0 AODV 48 [0 ffffffff e 800] ------- [14:255 -1:255 26 0] [0x2 5 1 [0 0] [40 4]] (REQUEST)
r 1.014848655 _12_ MAC  --- 0 AODV 48 [0 ffffffff e 800] ------- [14:255 -1:255 26 0] [0x2 5 1 [0 0] [40 4]] (REQUEST)
r 1.014873598 _13_ RTR  --- 0 AODV 48 [0 ffffffff e 800] ------- [14:255 -1:255 26 0] [0x2 5 1 [0 0] [40 4]] (REQUEST)
r 1.014873655 _12_ RTR  --- 0 AODV 48 [0 ffffffff e 800] ------- [14:255 -1:255 26 0] [0x2 5 1 [0 0] [40 4]] (REQUEST)
s 1.015257342 _42_ MAC  --- 0 AODV 106 [0 ffffffff 2a 800] ------- [42:255 -1:255 27 0] [0x2 4 1 [0 0] [40 4]] (REQUEST)
s 1.015275239 _45_ RTR  --- 0 AODV 48 [0 ffffffff 2e 800] ------- [45:255 -1:255 27 0] [0x2 4 1 [0 0] [40 4]] (REQUEST)
s 1.015390239 _45_ MAC  --- 0 AODV 106 [0 ffffffff 2d 800] ------- [45:255 -1:255 27 0] [0x2 4 1 [0 0] [40 4]] (REQUEST)
s 1.015773511 _11_ RTR  --- 0 AODV 48 [0 ffffffff 29 800] ------- [11:255 -1:255 27 0] [0x2 4 1 [0 0] [40 4]] (REQUEST)
s 1.015787225 _12_ RTR  --- 0 AODV 48 [0 ffffffff e 800] ------- [12:255 -1:255 25 0] [0x2 6 1 [0 0] [40 4]] (REQUEST)
s 1.015982225 _12_ MAC  --- 0 AODV 106 [0 ffffffff c 800] ------- [12:255 -1:255 25 0] [0x2 6 1 [0 0] [40 4]] (REQUEST)
r 1.016105739 _9_ MAC  --- 0 AODV 48 [0 ffffffff 2a 800] ------- [42:255 -1:255 27 0] [0x2 4 1 [0 0] [40 4]] (REQUEST)
r 1.016105832 _52_ MAC  --- 0 AODV 48 [0 ffffffff 2a 800] ------- [42:255 -1:255 27 0] [0x2 4 1 [0 0] [40 4]] (REQUEST)
r 1.016106004 _27_ MAC  --- 0 AODV 48 [0 ffffffff 2a 800] ------- [42:255 -1:255 27 0] [0x2 4 1 [0 0] [40 4]] (REQUEST)
r 1.016106061 _55_ MAC  --- 0 AODV 48 [0 ffffffff 2a 800] ------- [42:255 -1:255 27 0] [0x2 4 1 [0 0] [40 4]] (REQUEST)
r 1.016106132 _8_ MAC  --- 0 AODV 48 [0 ffffffff 2a 800] ------- [42:255 -1:255 27 0] [0x2 4 1 [0 0] [40 4]] (REQUEST)
r 1.016130739 _9_ RTR  --- 0 AODV 48 [0 ffffffff 2a 800] ------- [42:255 -1:255 27 0] [0x2 4 1 [0 0] [40 4]] (REQUEST)
r 1.016130832 _52_ RTR  --- 0 AODV 48 [0 ffffffff 2a 800] ------- [42:255 -1:255 27 0] [0x2 4 1 [0 0] [40 4]] (REQUEST)
r 1.016131004 _27_ RTR  --- 0 AODV 48 [0 ffffffff 2a 800] ------- [42:255 -1:255 27 0] [0x2 4 1 [0 0] [40 4]] (REQUEST)
r 1.016131061 _55_ RTR  --- 0 AODV 48 [0 ffffffff 2a 800] ------- [42:255 -1:255 27 0] [0x2 4 1 [0 0] [40 4]] (REQUEST)
r 1.016131132 _8_ RTR  --- 0 AODV 48 [0 ffffffff 2a 800] ------- [42:255 -1:255 27 0] [0x2 4 1 [0 0] [40 4]] (REQUEST)
r 1.016238648 _35_ MAC  --- 0 AODV 48 [0 ffffffff 2d 800] ------- [45:255 -1:255 27 0] [0x2 4 1 [0 0] [40 4]] (REQUEST)
r 1.016238715 _44_ MAC  --- 0 AODV 48 [0 ffffffff 2d 800] ------- [45:255 -1:255 27 0] [0x2 4 1 [0 0] [40 4]] (REQUEST)
r 1.016238732 _46_ MAC  --- 0 AODV 48 [0 ffffffff 2d 800] ------- [45:255 -1:255 27 0] [0x2 4 1 [0 0] [40 4]] (REQUEST)
D 1.016238737 _37_ MAC  COL 0 AODV 106 [0 ffffffff 2d 800] ------- [45:255 -1:255 27 0] [0x2 4 1 [0 0] [40 4]] (REQUEST)
D 1.016238789 _36_ MAC  COL 0 AODV 106 [0 ffffffff 2d 800] ------- [45:255 -1:255 27 0] [0x2 4 1 [0 0] [40 4]] (REQUEST)
r 1.016263648 _35_ RTR  --- 0 AODV 48 [0 ffffffff 2d 800] ------- [45:255 -1:255 27 0] [0x2 4 1 [0 0] [40 4]] (REQUEST)
r 1.016263715 _44_ RTR  --- 0 AODV 48 [0 ffffffff 2d 800] ------- [45:255 -1:255 27 0] [0x2 4 1 [0 0] [40 4]] (REQUEST)
r 1.016263732 _46_ RTR  --- 0 AODV 48 [0 ffffffff 2d 800] ------- [45:255 -1:255 27 0] [0x2 4 1 [0 0] [40 4]] (REQUEST)
s 1.016495339 _27_ RTR  --- 0 AODV 48 [0 ffffffff 10 800] ------- [27:255 -1:255 27 0] [0x2 4 1 [0 0] [40 4]] (REQUEST)
s 1.016733730 _27_ MAC  --- 0 AODV 106 [0 ffffffff 1b 800] ------- [27:255 -1:255 27 0] [0x2 4 1 [0 0] [40 4]] (REQUEST)
D 1.016830894 _11_ MAC  COL 0 AODV 106 [0 ffffffff c 800] ------- [12:255 -1:255 25 0] [0x2 6 1 [0 0] [40 4]] (REQUEST)
D 1.016830915 _15_ MAC  COL 0 AODV 106 [0 ffffffff c 800] ------- [12:255 -1:255 25 0] [0x2 6 1 [0 0] [40 4]] (REQUEST)
r 1.016830970 _14_ MAC  --- 0 AODV 48 [0 ffffffff c 800] ------- [12:255 -1:255 25 0] [0x2 6 1 [0 0] [40 4]] (REQUEST)
r 1.016855970 _14_ RTR  --- 0 AODV 48 [0 ffffffff c 800] ------- [12:255 -1:255 25 0] [0x2 6 1 [0 0] [40 4]] (REQUEST)
r 1.017582168 _23_ MAC  --- 0 AODV 48 [0 ffffffff 1b 800] ------- [27:255 -1:255 27 0] [0x2 4 1 [0 0] [40 4]] (REQUEST)
r 1.017582365 _16_ MAC  --- 0 AODV 48 [0 ffffffff 1b 800] ------- [27:255 -1:255 27 0] [0x2 4 1 [0 0] [40 4]] (REQUEST)
r 1.017582392 _42_ MAC  --- 0 AODV 48 [0 ffffffff 1b 800] ------- [27:255 -1:255 27 0] [0x2 4 1 [0 0] [40 4]] (REQUEST)
r 1.017582473 _34_ MAC  --- 0 AODV 48 [0 ffffffff 1b 800] ------- [27:255 -1:255 27 0] [0x2 4 1 [0 0] [40 4]] (REQUEST)
r 1.017607168 _23_ RTR  --- 0 AODV 48 [0 ffffffff 1b 800] ------- [27:255 -1:255 27 0] [0x2 4 1 [0 0] [40 4]] (REQUEST)
r 1.017607365 _16_ RTR  --- 0 AODV 48 [0 ffffffff 1b 800] ------- [27:255 -1:255 27 0] [0x2 4 1 [0 0] [40 4]] (REQUEST)
r 1.017607392 _42_ RTR  --- 0 AODV 48 [0 ffffffff 1b 800] ------- [27:255 -1:255 27 0] [0x2 4 1 [0 0] [40 4]] (REQUEST)
r 1.017607473 _34_ RTR  --- 0 AODV 48 [0 ffffffff 1b 800] ------- [27:255 -1:255 27 0] [0x2 4 1 [0 0] [40 4]] (REQUEST)
s 1.017704894 _11_ MAC  --- 0 AODV 106 [0 ffffffff b 800] ------- [11:255 -1:255 27 0] [0x2 4 1 [0 0] [40 4]] (REQUEST)
s 1.018116860 _52_ MAC  --- 0 AODV 106 [0 ffffffff 34 800] ------- [52:255 -1:255 27 0] [0x2 4 1 [0 0] [40 4]] (REQUEST)
D 1.018118250 _10_ MAC  COL 0 AODV 106 [0 ffffffff b 800] ------- [11:255 -1:255 27 0] [0x2 4 1 [0 0] [40 4]] (REQUEST)
r 1.018553563 _12_ MAC  --- 0 AODV 48 [0 ffffffff b 800] ------- [11:255 -1:255 27 0] [0x2 4 1 [0 0] [40 4]] (REQUEST)
r 1.018553612 _13_ MAC  --- 0 AODV 48 [0 ffffffff b 800] ------- [11:255 -1:255 27 0] [0x2 4 1 [0 0] [40 4]] (REQUEST)
r 1.018553625 _41_ MAC  --- 0 AODV 48 [0 ffffffff b 800] ------- [11:255 -1:255 27 0] [0x2 4 1 [0 0] [40 4]] (REQUEST)
r 1.018578563 _12_ RTR  --- 0 AODV 48 [0 ffffffff b 800] ------- [11:255 -1:255 27 0] [0x2 4 1 [0 0] [40 4]] (REQUEST)
r 1.018578612 _13_ RTR  --- 0 AODV 48 [0 ffffffff b 800] ------- [11:255 -1:255 27 0] [0x2 4 1 [0 0] [40 4]] (REQUEST)
r 1.018578625 _41_ RTR  --- 0 AODV 48 [0 ffffffff b 800] ------- [11:255 -1:255 27 0] [0x2 4 1 [0 0] [40 4]] (REQUEST)
s 1.018585944 _55_ RTR  --- 0 AODV 48 [0 ffffffff 9 800] ------- [55:255 -1:255 27 0] [0x2 4 1 [0 0] [40 4]] (REQUEST)
s 1.018886714 _8_ RTR  --- 0 AODV 48 [0 ffffffff 9 800] ------- [8:255 -1:255 27 0] [0x2 4 1 [0 0] [40 4]] (REQUEST)