s 1.000000000 _40_ AGT  --- 0 cbr 1000 [0 0 0 0] ------- [40:0 0:0 32 0] [0] 0 0
r 1.000000000 _40_ RTR  --- 0 cbr 1000 [0 0 0 0] ------- [40:0 0:0 32 0] [0] 0 0
s 1.000000000 _40_ RTR  --- 0 AODV 48 [0 0 0 0] ------- [40:255 -1:255 30 0] [0x2 1 1 [0 0] [40 4]] (REQUEST)
s 1.000535000 _40_ MAC  --- 0 AODV 106 [0 ffffffff 28 800] ------- [40:255 -1:255 30 0] [0x2 1 1 [0 0] [40 4]] (REQUEST)
r 1.001383552 _26_ MAC  --- 0 AODV 48 [0 ffffffff 28 800] ------- [40:255 -1:255 30 0] [0x2 1 1 [0 0] [40 4]] (REQUEST)
r 1.001383572 _17_ MAC  --- 0 AODV 48 [0 ffffffff 28 800] ------- [40:255 -1:255 30 0] [0x2 1 1 [0 0] [40 4]] (REQUEST)
r 1.001383659 _10_ MAC  --- 0 AODV 48 [0 ffffffff 28 800] ------- [40:255 -1:255 30 0] [0x2 1 1 [0 0] [40 4]] (REQUEST)
r 1.001408552 _26_ RTR  --- 0 AODV 48 [0 ffffffff 28 800] ------- [40:255 -1:255 30 0] [0x2 1 1 [0 0] [40 4]] (REQUEST)
r 1.001408572 _17_ RTR  --- 0 AODV 48 [0 ffffffff 28 800] ------- [40:255 -1:255 30 0] [0x2 1 1 [0 0] [40 4]] (REQUEST)
r 1.001408659 _10_ RTR  --- 0 AODV 48 [0 ffffffff 28 800] ------- [40:255 -1:255 30 0] [0x2 1 1 [0 0] [40 4]] (REQUEST)
s 1.001550599 _26_ RTR  --- 0 AODV 48 [0 ffffffff 28 800] ------- [26:255 -1:255 29 0] [0x2 2 1 [0 0] [40 4]] (REQUEST)
s 1.001625599 _26_ MAC  --- 0 AODV 106 [0 ffffffff 1a 800] ------- [26:255 -1:255 29 0] [0x2 2 1 [0 0] [40 4]] (REQUEST)
s 1.002289798 _17_ RTR  --- 0 AODV 48 [0 ffffffff 28 800] ------- [17:255 -1:255 29 0] [0x2 2 1 [0 0] [40 4]] (REQUEST)
r 1.002474015 _18_ MAC  --- 0 AODV 48 [0 ffffffff 1a 800] ------- [26:255 -1:255 29 0] [0x2 2 1 [0 0] [40 4]] (REQUEST)
r 1.002474152 _40_ MAC  --- 0 AODV 48 [0 ffffffff 1a 800] ------- [26:255 -1:255 29 0] [0x2 2 1 [0 0] [40 4]] (REQUEST)
r 1.002474162 _39_ MAC  --- 0 AODV 48 [0 ffffffff 1a 800] ------- [26:255 -1:255 29 0] [0x2 2 1 [0 0] [40 4]] (REQUEST)
r 1.002474315 _41_ MAC  --- 0 AODV 48 [0 ffffffff 1a 800] ------- [26:255 -1:255 29 0] [0x2 2 1 [0 0] [40 4]] (REQUEST)
r 1.002499015 _18_ RTR  --- 0 AODV 48 [0 ffffffff 1a 800] ------- [26:255 -1:255 29 0] [0x2 2 1 [0 0] [40 4]] (REQUEST)
r 1.002499152 _40_ RTR  --- 0 AODV 48 [0 ffffffff 1a 800] ------- [26:255 -1:255 29 0] [0x2 2 1 [0 0] [40 4]] (REQUEST)
r 1.002499162 _39_ RTR  --- 0 AODV 48 [0 ffffffff 1a 800] ------- [26:255 -1:255 29 0] [0x2 2 1 [0 0] [40 4]] (REQUEST)
r 1.002499315 _41_ RTR  --- 0 AODV 48 [0 ffffffff 1a 800] ------- [26:255 -1:255 29 0] [0x2 2 1 [0 0] [40 4]] (REQUEST)
s 1.003048564 _17_ MAC  --- 0 AODV 106 [0 ffffffff 11 800] ------- [17:255 -1:255 29 0] [0x2 2 1 [0 0] [40 4]] (REQUEST)
r 1.003897088 _25_ MAC  --- 0 AODV 48 [0 ffffffff 11 800] ------- [17:255 -1:255 29 0] [0x2 2 1 [0 0] [40 4]] (REQUEST)
r 1.003897135 _40_ MAC  --- 0 AODV 48 [0 ffffffff 11 800] ------- [17:255 -1:255 29 0] [0x2 2 1 [0 0] [40 4]] (REQUEST)
r 1.003897181 _37_ MAC  --- 0 AODV 48 [0 ffffffff 11 800] ------- [17:255 -1:255 29 0] [0x2 2 1 [0 0] [40 4]] (REQUEST)
r 1.003897262 _35_ MAC  --- 0 AODV 48 [0 ffffffff 11 800] ------- [17:255 -1:255 29 0] [0x2 2 1 [0 0] [40 4]] (REQUEST)
r 1.003897334 _16_ MAC  --- 0 AODV 48 [0 ffffffff 11 800] ------- [17:255 -1:255 29 0] [0x2 2 1 [0 0] [40 4]] (REQUEST)
r 1.003922088 _25_ RTR  --- 0 AODV 48 [0 ffffffff 11 800] ------- [17:255 -1:255 29 0] [0x2 2 1 [0 0] [40 4]] (REQUEST)
r 1.003922135 _40_ RTR  --- 0 AODV 48 [0 ffffffff 11 800] ------- [17:255 -1:255 29 0] [0x2 2 1 [0 0] [40 4]] (REQUEST)
r 1.003922181 _37_ RTR  --- 0 AODV 48 [0 ffffffff 11 800] ------- [17:255 -1:255 29 0] [0x2 2 1 [0 0] [40 4]] (REQUEST)
r 1.003922262 _35_ RTR  --- 0 AODV 48 [0 ffffffff 11 800] ------- [17:255 -1:255 29 0] [0x2 2 1 [0 0] [40 4]] (REQUEST)
r 1.003922334 _16_ RTR  --- 0 AODV 48 [0 ffffffff 11 800] ------- [17:255 -1:255 29 0] [0x2 2 1 [0 0] [40 4]] (REQUEST)
s 1.004350127 _37_ RTR  --- 0 AODV 48 [0 ffffffff 11 800] ------- [37:255 -1:255 28 0] [0x2 3 1 [0 0] [40 4]] (REQUEST)
s 1.004665127 _37_ MAC  --- 0 AODV 106 [0 ffffffff 25 800] ------- [37:255 -1:255 28 0] [0x2 3 1 [0 0] [40 4]] (REQUEST)
s 1.004845033 _18_ RTR  --- 0 AODV 48 [0 ffffffff 1a 800] ------- [18:255 -1:255 28 0] [0x2 3 1 [0 0] [40 4]] (REQUEST)
s 1.005060416 _16_ RTR  --- 0 AODV 48 [0 ffffffff 11 800] ------- [16:255 -1:255 28 0] [0x2 3 1 [0 0] [40 4]] (REQUEST)
s 1.005080033 _18_ MAC  --- 0 AODV 106 [0 ffffffff 12 800] ------- [18:255 -1:255 28 0] [0x2 3 1 [0 0] [40 4]] (REQUEST)
r 1.005513646 _36_ MAC  --- 0 AODV 48 [0 ffffffff 25 800] ------- [37:255 -1:255 28 0] [0x2 3 1 [0 0] [40 4]] (REQUEST)
r 1.005513745 _17_ MAC  --- 0 AODV 48 [0 ffffffff 25 800] ------- [37:255 -1:255 28 0] [0x2 3 1 [0 0] [40 4]] (REQUEST)
r 1.005513766 _35_ MAC  --- 0 AODV 48 [0 ffffffff 25 800] ------- [37:255 -1:255 28 0] [0x2 3 1 [0 0] [40 4]] (REQUEST)
r 1.005513828 _16_ MAC  --- 0 AODV 48 [0 ffffffff 25 800] ------- [37:255 -1:255 28 0] [0x2 3 1 [0 0] [40 4]] (REQUEST)
r 1.005538646 _36_ RTR  --- 0 AODV 48 [0 ffffffff 25 800] ------- [37:255 -1:255 28 0] [0x2 3 1 [0 0] [40 4]] (REQUEST)
r 1.005538745 _17_ RTR  --- 0 AODV 48 [0 ffffffff 25 800] ------- [37:255 -1:255 28 0] [0x2 3 1 [0 0] [40 4]] (REQUEST)
r 1.005538766 _35_ RTR  --- 0 AODV 48 [0 ffffffff 25 800] ------- [37:255 -1:255 28 0] [0x2 3 1 [0 0] [40 4]] (REQUEST)
r 1.005538828 _16_ RTR  --- 0 AODV 48 [0 ffffffff 25 800] ------- [37:255 -1:255 28 0] [0x2 3 1 [0 0] [40 4]] (REQUEST)
s 1.005563542 _25_ RTR  --- 0 AODV 48 [0 ffffffff 11 800] ------- [25:255 -1:255 28 0] [0x2 3 1 [0 0] [40 4]] (REQUEST)
s 1.005590106 _41_ RTR  --- 0 AODV 48 [0 ffffffff 1a 800] ------- [41:255 -1:255 28 0] [0x2 3 1 [0 0] [40 4]] (REQUEST)
s 1.005820393 _10_ RTR  --- 0 AODV 48 [0 ffffffff 28 800] ------- [10:255 -1:255 29 0] [0x2 2 1 [0 0] [40 4]] (REQUEST)
D 1.005928394 _39_ MAC  COL 0 AODV 106 [0 ffffffff 12 800] ------- [18:255 -1:255 28 0] [0x2 3 1 [0 0] [40 4]] (REQUEST)
D 1.005928449 _26_ MAC  COL 0 AODV 106 [0 ffffffff 12 800] ------- [18:255 -1:255 28 0] [0x2 3 1 [0 0] [40 4]] (REQUEST)
r 1.005928769 _41_ MAC  --- 0 AODV 48 [0 ffffffff 12 800] ------- [18:255 -1:255 28 0] [0x2 3 1 [0 0] [40 4]] (REQUEST)
r 1.005953769 _41_ RTR  --- 0 AODV 48 [0 ffffffff 12 800] ------- [18:255 -1:255 28 0] [0x2 3 1 [0 0] [40 4]] (REQUEST)
s 1.006043828 _16_ MAC  --- 0 AODV 106 [0 ffffffff 10 800] ------- [16:255 -1:255 28 0] [0x2 3 1 [0 0] [40 4]] (REQUEST)
s 1.006198769 _41_ MAC  --- 0 AODV 106 [0 ffffffff 29 800] ------- [41:255 -1:255 28 0] [0x2 3 1 [0 0] [40 4]] (REQUEST)
D 1.006200039 _10_ MAC  COL 0 AODV 106 [0 ffffffff 10 800] ------- [16:255 -1:255 28 0] [0x2 3 1 [0 0] [40 4]] (REQUEST)
r 1.006892463 _27_ MAC  --- 0 AODV 48 [0 ffffffff 10 800] ------- [16:255 -1:255 28 0] [0x2 3 1 [0 0] [40 4]] (REQUEST)
r 1.006892529 _37_ MAC  --- 0 AODV 48 [0 ffffffff 10 800] ------- [16:255 -1:255 28 0] [0x2 3 1 [0 0] [40 4]] (REQUEST)
r 1.006892598 _17_ MAC  --- 0 AODV 48 [0 ffffffff 10 800] ------- [16:255 -1:255 28 0] [0x2 3 1 [0 0] [40 4]] (REQUEST)
r 1.006917463 _27_ RTR  --- 0 AODV 48 [0 ffffffff 10 800] ------- [16:255 -1:255 28 0] [0x2 3 1 [0 0] [40 4]] (REQUEST)
r 1.006917529 _37_ RTR  --- 0 AODV 48 [0 ffffffff 10 800] ------- [16:255 -1:255 28 0] [0x2 3 1 [0 0] [40 4]] (REQUEST)
r 1.006917598 _17_ RTR  --- 0 AODV 48 [0 ffffffff 10 800] ------- [16:255 -1:255 28 0] [0x2 3 1 [0 0] [40 4]] (REQUEST)
r 1.007047094 _13_ MAC  --- 0 AODV 48 [0 ffffffff 29 800] ------- [41:255 -1:255 28 0] [0x2 3 1 [0 0] [40 4]] (REQUEST)
D 1.007047485 _26_ MAC  COL 0 AODV 106 [0 ffffffff 29 800] ------- [41:255 -1:255 28 0] [0x2 3 1 [0 0] [40 4]] (REQUEST)
D 1.007047500 _11_ MAC  COL 0 AODV 106 [0 ffffffff 29 800] ------- [41:255 -1:255 28 0] [0x2 3 1 [0 0] [40 4]] (REQUEST)
r 1.007047505 _18_ MAC  --- 0 AODV 48 [0 ffffffff 29 800] ------- [41:255 -1:255 28 0] [0x2 3 1 [0 0] [40 4]] (REQUEST)
r 1.007072094 _13_ RTR  --- 0 AODV 48 [0 ffffffff 29 800] ------- [41:255 -1:255 28 0] [0x2 3 1 [0 0] [40 4]] (REQUEST)
r 1.007072505 _18_ RTR  --- 0 AODV 48 [0 ffffffff 29 800] ------- [41:255 -1:255 28 0] [0x2 3 1 [0 0] [40 4]] (REQUEST)
s 1.007482039 _10_ MAC  --- 0 AODV 106 [0 ffffffff a 800] ------- [10:255 -1:255 29 0] [0x2 2 1 [0 0] [40 4]] (REQUEST)
r 1.008330698 _40_ MAC  --- 0 AODV 48 [0 ffffffff a 800] ------- [10:255 -1:255 29 0] [0x2 2 1 [0 0] [40 4]] (REQUEST)
r 1.008330811 _16_ MAC  --- 0 AODV 48 [0 ffffffff a 800] ------- [10:255 -1:255 29 0] [0x2 2 1 [0 0] [40 4]] (REQUEST)
r 1.008330822 _11_ MAC  --- 0 AODV 48 [0 ffffffff a 800] ------- [10:255 -1:255 29 0] [0x2 2 1 [0 0] [40 4]] (REQUEST)
r 1.008330839 _9_ MAC  --- 0 AODV 48 [0 ffffffff a 800] ------- [10:255 -1:255 29 0] [0x2 2 1 [0 0] [40 4]] (REQUEST)
r 1.008355698 _40_ RTR  --- 0 AODV 48 [0 ffffffff a 800] ------- [10:255 -1:255 29 0] [0x2 2 1 [0 0] [40 4]] (REQUEST)
r 1.008355811 _16_ RTR  --- 0 AODV 48 [0 ffffffff a 800] ------- [10:255 -1:255 29 0] [0x2 2 1 [0 0] [40 4]] (REQUEST)
r 1.008355822 _11_ RTR  --- 0 AODV 48 [0 ffffffff a 800] ------- [10:255 -1:255 29 0] [0x2 2 1 [0 0] [40 4]] (REQUEST)
r 1.008355839 _9_ RTR  --- 0 AODV 48 [0 ffffffff a 800] ------- [10:255 -1:255 29 0] [0x2 2 1 [0 0] [40 4]] (REQUEST)
s 1.008887814 _39_ RTR  --- 0 AODV 48 [0 ffffffff 1a 800] ------- [39:255 -1:255 28 0] [0x2 3 1 [0 0] [40 4]] (REQUEST)
s 1.008925483 _25_ MAC  --- 0 AODV 106 [0 ffffffff 19 800] ------- [25:255 -1:255 28 0] [0x2 3 1 [0 0] [40 4]] (REQUEST)
r 1.009773993 _35_ MAC  --- 0 AODV 48 [0 ffffffff 19 800] ------- [25:255 -1:255 28 0] [0x2 3 1 [0 0] [40 4]] (REQUEST)
r 1.009774008 _17_ MAC  --- 0 AODV 48 [0 ffffffff 19 800] ------- [25:255 -1:255 28 0] [0x2 3 1 [0 0] [40 4]] (REQUEST)
r 1.009774114 _38_ MAC  --- 0 AODV 48 [0 ffffffff 19 800] ------- [25:255 -1:255 28 0] [0x2 3 1 [0 0] [40 4]] (REQUEST)
r 1.009798993 _35_ RTR  --- 0 AODV 48 [0 ffffffff 19 800] ------- [25:255 -1:255 28 0] [0x2 3 1 [0 0] [40 4]] (REQUEST)
r 1.009799008 _17_ RTR  --- 0 AODV 48 [0 ffffffff 19 800] ------- [25:255 -1:255 28 0] [0x2 3 1 [0 0] [40 4]] (REQUEST)
r 1.009799114 _38_ RTR  --- 0 AODV 48 [0 ffffffff 19 800] ------- [25:255 -1:255 28 0] [0x2 3 1 [0 0] [40 4]] (REQUEST)
s 1.010322938 _35_ RTR  --- 0 AODV 48 [0 ffffffff 11 800] ------- [35:255 -1:255 28 0] [0x2 3 1 [0 0] [40 4]] (REQUEST)
s 1.010477938 _35_ MAC  --- 0 AODV 106 [0 ffffffff 23 800] ------- [35:255 -1:255 28 0] [0x2 3 1 [0 0] [40 4]] (REQUEST)
s 1.010768078 _11_ RTR  --- 0 AODV 48 [0 ffffffff a 800] ------- [11:255 -1:255 28 0] [0x2 3 1 [0 0] [40 4]] (REQUEST)
s 1.011123078 _11_ MAC  --- 0 AODV 106 [0 ffffffff b 800] ------- [11:255 -1:255 28 0] [0x2 3 1 [0 0] [40 4]] (REQUEST)
r 1.011326448 _25_ MAC  --- 0 AODV 48 [0 ffffffff 23 800] ------- [35:255 -1:255 28 0] [0x2 3 1 [0 0] [40 4]] (REQUEST)
r 1.011326577 _37_ MAC  --- 0 AODV 48 [0 ffffffff 23 800] ------- [35:255 -1:255 28 0] [0x2 3 1 [0 0] [40 4]] (REQUEST)
r 1.011326637 _17_ MAC  --- 0 AODV 48 [0 ffffffff 23 800] ------- [35:255 -1:255 28 0] [0x2 3 1 [0 0] [40 4]] (REQUEST)
r 1.011351448 _25_ RTR  --- 0 AODV 48 [0 ffffffff 23 800] ------- [35:255 -1:255 28 0] [0x2 3 1 [0 0] [40 4]] (REQUEST)
r 1.011351577 _37_ RTR  --- 0 AODV 48 [0 ffffffff 23 800] ------- [35:255 -1:255 28 0] [0x2 3 1 [0 0] [40 4]] (REQUEST)
r 1.011351637 _17_ RTR  --- 0 AODV 48 [0 ffffffff 23 800] ------- [35:255 -1:255 28 0] [0x2 3 1 [0 0] [40 4]] (REQUEST)
r 1.011971747 _12_ MAC  --- 0 AODV 48 [0 ffffffff b 800] ------- [11:255 -1:255 28 0] [0x2 3 1 [0 0] [40 4]] (REQUEST)
r 1.011971796 _13_ MAC  --- 0 AODV 48 [0 ffffffff b 800] ------- [11:255 -1:255 28 0] [0x2 3 1 [0 0] [40 4]] (REQUEST)
r 1.011971809 _41_ MAC  --- 0 AODV 48 [0 ffffffff b 800] ------- [11:255 -1:255 28 0] [0x2 3 1 [0 0] [40 4]] (REQUEST)
D 1.011971861 _10_ MAC  COL 0 AODV 106 [0 ffffffff b 800] ------- [11:255 -1:255 28 0] [0x2 3 1 [0 0] [40 4]] (REQUEST)
r 1.011996747 _12_ RTR  --- 0 AODV 48 [0 ffffffff b 800] ------- [11:255 -1:255 28 0] [0x2 3 1 [0 0] [40 4]] (REQUEST)
r 1.011996796 _13_ RTR  --- 0 AODV 48 [0 ffffffff b 800] ------- [11:255 -1:255 28 0] [0x2 3 1 [0 0] [40 4]] (REQUEST)
r 1.011996809 _41_ RTR  --- 0 AODV 48 [0 ffffffff b 800] ------- [11:255 -1:255 28 0] [0x2 3 1 [0 0] [40 4]] (REQUEST)
s 1.012406691 _39_ MAC  --- 0 AODV 106 [0 ffffffff 27 800] ------- [39:255 -1:255 28 0] [0x2 3 1 [0 0] [40 4]] (REQUEST)
r 1.013255052 _18_ MAC  --- 0 AODV 48 [0 ffffffff 27 800] ------- [39:255 -1:255 28 0] [0x2 3 1 [0 0] [40 4]] (REQUEST)
r 1.013255243 _19_ MAC  --- 0 AODV 48 [0 ffffffff 27 800] ------- [39:255 -1:255 28 0] [0x2 3 1 [0 0] [40 4]] (REQUEST)
r 1.013255254 _26_ MAC  --- 0 AODV 48 [0 ffffffff 27 800] ------- [39:255 -1:255 28 0] [0x2 3 1 [0 0] [40 4]] (REQUEST)
r 1.013255394 _38_ MAC  --- 0 AODV 48 [0 ffffffff 27 800] ------- [39:255 -1:255 28 0] [0x2 3 1 [0 0] [40 4]] (REQUEST)
r 1.013280052 _18_ RTR  --- 0 AODV 48 [0 ffffffff 27 800] ------- [39:255 -1:255 28 0] [0x2 3 1 [0 0] [40 4]] (REQUEST)
r 1.013280243 _19_ RTR  --- 0 AODV 48 [0 ffffffff 27 800] ------- [39:255 -1:255 28 0] [0x2 3 1 [0 0] [40 4]] (REQUEST)
r 1.013280254 _26_ RTR  --- 0 AODV 48 [0 ffffffff 27 800] ------- [39:255 -1:255 28 0] [0x2 3 1 [0 0] [40 4]] (REQUEST)
r 1.013280394 _38_ RTR  --- 0 AODV 48 [0 ffffffff 27 800] ------- [39:255 -1:255 28 0] [0x2 3 1 [0 0] [40 4]] (REQUEST)
s 1.013608932 _36_ RTR  --- 0 AODV 48 [0 ffffffff 25 800] ------- [36:255 -1:255 27 0] [0x2 4 1 [0 0] [40 4]] (REQUEST)
s 1.013840531 _27_ RTR  --- 0 AODV 48 [0 ffffffff 10 800] ------- [27:255 -1:255 27 0] [0x2 4 1 [0 0] [40 4]] (REQUEST)
s 1.013975531 _27_ MAC  --- 0 AODV 106 [0 ffffffff 1b 800] ------- [27:255 -1:255 27 0] [0x2 4 1 [0 0] [40 4]] (REQUEST)
r 1.014823968 _23_ MAC  --- 0 AODV 48 [0 ffffffff 1b 800] ------- [27:255 -1:255 27 0] [0x2 4 1 [0 0] [40 4]] (REQUEST)
r 1.014824166 _16_ MAC  --- 0 AODV 48 [0 ffffffff 1b 800] ------- [27:255 -1:255 27 0] [0x2 4 1 [0 0] [40 4]] (REQUEST)
r 1.014824193 _42_ MAC  --- 0 AODV 48 [0 ffffffff 1b 800] ------- [27:255 -1:255 27 0] [0x2 4 1 [0 0] [40 4]] (REQUEST)
r 1.014824274 _34_ MAC  --- 0 AODV 48 [0 ffffffff 1b 800] ------- [27:255 -1:255 27 0] [0x2 4 1 [0 0] [40 4]] (REQUEST)
r 1.014848968 _23_ RTR  --- 0 AODV 48 [0 ffffffff 1b 800] ------- [27:255 -1:255 27 0] [0x2 4 1 [0 0] [40 4]] (REQUEST)
r 1.014849166 _16_ RTR  --- 0 AODV 48 [0 ffffffff 1b 800] ------- [27:255 -1:255 27 0] [0x2 4 1 [0 0] [40 4]] (REQUEST)
r 1.014849193 _42_ RTR  --- 0 AODV 48 [0 ffffffff 1b 800] ------- [27:255 -1:255 27 0] [0x2 4 1 [0 0] [40 4]] (REQUEST)
r 1.014849274 _34_ RTR  --- 0 AODV 48 [0 ffffffff 1b 800] ------- [27:255 -1:255 27 0] [0x2 4 1 [0 0] [40 4]] (REQUEST)
s 1.015470346 _13_ RTR  --- 0 AODV 48 [0 ffffffff 29 800] ------- [13:255 -1:255 27 0] [0x2 4 1 [0 0] [40 4]] (REQUEST)
s 1.015538624 _36_ MAC  --- 0 AODV 106 [0 ffffffff 24 800] ------- [36:255 -1:255 27 0] [0x2 4 1 [0 0] [40 4]] (REQUEST)
s 1.015725346 _13_ MAC  --- 0 AODV 106 [0 ffffffff d 800] ------- [13:255 -1:255 27 0] [0x2 4 1 [0 0] [40 4]] (REQUEST)
s 1.016080309 _34_ RTR  --- 0 AODV 48 [0 ffffffff 1b 800] ------- [34:255 -1:255 26 0] [0x2 5 1 [0 0] [40 4]] (REQUEST)
r 1.016387022 _20_ MAC  --- 0 AODV 48 [0 ffffffff 24 800] ------- [36:255 -1:255 27 0] [0x2 4 1 [0 0] [40 4]] (REQUEST)
r 1.016387143 _37_ MAC  --- 0 AODV 48 [0 ffffffff 24 800] ------- [36:255 -1:255 27 0] [0x2 4 1 [0 0] [40 4]] (REQUEST)
r 1.016387275 _24_ MAC  --- 0 AODV 48 [0 ffffffff 24 800] ------- [36:255 -1:255 27 0] [0x2 4 1 [0 0] [40 4]] (REQUEST)
r 1.016412022 _20_ RTR  --- 0 AODV 48 [0 ffffffff 24 800] ------- [36:255 -1:255 27 0] [0x2 4 1 [0 0] [40 4]] (REQUEST)
r 1.016412143 _37_ RTR  --- 0 AODV 48 [0 ffffffff 24 800] ------- [36:255 -1:255 27 0] [0x2 4 1 [0 0] [40 4]] (REQUEST)
r 1.016412275 _24_ RTR  --- 0 AODV 48 [0 ffffffff 24 800] ------- [36:255 -1:255 27 0] [0x2 4 1 [0 0] [40 4]] (REQUEST)
r 1.016573670 _41_ MAC  --- 0 AODV 48 [0 ffffffff d 800] ------- [13:255 -1:255 27 0] [0x2 4 1 [0 0] [40 4]] (REQUEST)
r 1.016574033 _14_ MAC  --- 0 AODV 48 [0 ffffffff d 800] ------- [13:255 -1:255 27 0] [0x2 4 1 [0 0] [40 4]] (REQUEST)
r 1.016574064 _11_ MAC  --- 0 AODV 48 [0 ffffffff d 800] ------- [13:255 -1:255 27 0] [0x2 4 1 [0 0] [40 4]] (REQUEST)
r 1.016598670 _41_ RTR  --- 0 AODV 48 [0 ffffffff d 800] ------- [13:255 -1:255 27 0] [0x2 4 1 [0 0] [40 4]] (REQUEST)
r 1.016599033 _14_ RTR  --- 0 AODV 48 [0 ffffffff d 800] ------- [13:255 -1:255 27 0] [0x2 4 1 [0 0] [40 4]] (REQUEST)
r 1.016599064 _11_ RTR  --- 0 AODV 48 [0 ffffffff d 800] ------- [13:255 -1:255 27 0] [0x2 4 1 [0 0] [40 4]] (REQUEST)
s 1.016866904 _9_ RTR  --- 0 AODV 48 [0 ffffffff a 800] ------- [9:255 -1:255 28 0] [0x2 3 1 [0 0] [40 4]] (REQUEST)
s 1.017082228 _34_ MAC  --- 0 AODV 106 [0 ffffffff 22 800] ------- [34:255 -1:255 26 0] [0x2 5 1 [0 0] [40 4]] (REQUEST)
r 1.017930705 _23_ MAC  --- 0 AODV 48 [0 ffffffff 22 800] ------- [34:255 -1:255 26 0] [0x2 5 1 [0 0] [40 4]] (REQUEST)
r 1.017930710 _28_ MAC  --- 0 AODV 48 [0 ffffffff 22 800] ------- [34:255 -1:255 26 0] [0x2 5 1 [0 0] [40 4]] (REQUEST)
r 1.017930879 _32_ MAC  --- 0 AODV 48 [0 ffffffff 22 800] ------- [34:255 -1:255 26 0] [0x2 5 1 [0 0] [40 4]] (REQUEST)
r 1.017930900 _6_ MAC  --- 0 AODV 48 [0 ffffffff 22 800] ------- [34:255 -1:255 26 0] [0x2 5 1 [0 0] [40 4]] (REQUEST)
r 1.017930971 _27_ MAC  --- 0 AODV 48 [0 ffffffff 22 800] ------- [34:255 -1:255 26 0] [0x2 5 1 [0 0] [40 4]] (REQUEST)
r 1.017930972 _43_ MAC  --- 0 AODV 48 [0 ffffffff 22 800] ------- [34:255 -1:255 26 0] [0x2 5 1 [0 0] [40 4]] (REQUEST)
r 1.017955705 _23_ RTR  --- 0 AODV 48 [0 ffffffff 22 800] ------- [34:255 -1:255 26 0] [0x2 5 1 [0 0] [40 4]] (REQUEST)
r 1.017955710 _28_ RTR  --- 0 AODV 48 [0 ffffffff 22 800] ------- [34:255 -1:255 26 0] [0x2 5 1 [0 0] [40 4]] (REQUEST)
r 1.017955879 _32_ RTR  --- 0 AODV 48 [0 ffffffff 22 800] ------- [34:255 -1:255 26 0] [0x2 5 1 [0 0] [40 4]] (REQUEST)
r 1.017955900 _6_ RTR  --- 0 AODV 48 [0 ffffffff 22 800] ------- [34:255 -1:255 26 0] [0x2 5 1 [0 0] [40 4]] (REQUEST)
r 1.017955971 _27_ RTR  --- 0 AODV 48 [0 ffffffff 22 800] ------- [34:255 -1:255 26 0] [0x2 5 1 [0 0] [40 4]] (REQUEST)
r 1.017955972 _43_ RTR  --- 0 AODV 48 [0 ffffffff 22 800] ------- [34:255 -1:255 26 0] [0x2 5 1 [0 0] [40 4]] (REQUEST)
s 1.018205821 _42_ RTR  --- 0 AODV 48 [0 ffffffff 1b 800] ------- [42:255 -1:255 26 0] [0x2 5 1 [0 0] [40 4]] (REQUEST)
s 1.018425542 _9_ MAC  --- 0 AODV 106 [0 ffffffff 9 800] ------- [9:255 -1:255 28 0] [0x2 3 1 [0 0] [40 4]] (REQUEST)
s 1.018848568 _38_ RTR  --- 0 AODV 48 [0 ffffffff 19 800] ------- [38:255 -1:255 27 0] [0x2 4 1 [0 0] [40 4]] (REQUEST)
s 1.018943568 _38_ MAC  --- 0 AODV 106 [0 ffffffff 26 800] ------- [38:255 -1:255 27 0] [0x2 4 1 [0 0] [40 4]] (REQUEST)
r 1.019273939 _42_ MAC  --- 0 AODV 48 [0 ffffffff 9 800] ------- [9:255 -1:255 28 0] [0x2 3 1 [0 0] [40 4]] (REQUEST)
r 1.019274304 _8_ MAC  --- 0 AODV 48 [0 ffffffff 9 800] ------- [9:255 -1:255 28 0] [0x2 3 1 [0 0] [40 4]] (REQUEST)
r 1.019274341 _10_ MAC  --- 0 AODV 48 [0 ffffffff 9 800] ------- [9:255 -1:255 28 0] [0x2 3 1 [0 0] [40 4]] (REQUEST)
r 1.019298939 _42_ RTR  --- 0 AODV 48 [0 ffffffff 9 800] ------- [9:255 -1:255 28 0] [0x2 3 1 [0 0] [40 4]] (REQUEST)
r 1.019299304 _8_ RTR  --- 0 AODV 48 [0 ffffffff 9 800] ------- [9:255 -1:255 28 0] [0x2 3 1 [0 0] [40 4]] (REQUEST)
r 1.019299341 _10_ RTR  --- 0 AODV 48 [0 ffffffff 9 800] ------- [9:255 -1:255 28 0] [0x2 3 1 [0 0] [40 4]] (REQUEST)
s 1.019523939 _42_ MAC  --- 0 AODV 106 [0 ffffffff 2a 800] ------- [42:255 -1:255 26 0] [0x2 5 1 [0 0] [40 4]] (REQUEST)
r 1.019792076 _19_ MAC  --- 0 AODV 48 [0 ffffffff 26 800] ------- [38:255 -1:255 27 0] [0x2 4 1 [0 0] [40 4]] (REQUEST)
r 1.019792199 _25_ MAC  --- 0 AODV 48 [0 ffffffff 26 800] ------- [38:255 -1:255 27 0] [0x2 4 1 [0 0] [40 4]] (REQUEST)
r 1.019792271 _39_ MAC  --- 0 AODV 48 [0 ffffffff 26 800] ------- [38:255 -1:255 27 0] [0x2 4 1 [0 0] [40 4]] (REQUEST)
r 1.019817076 _19_ RTR  --- 0 AODV 48 [0 ffffffff 26 800] ------- [38:255 -1:255 27 0] [0x2 4 1 [0 0] [40 4]] (REQUEST)
r 1.019817199 _25_ RTR  --- 0 AODV 48 [0 ffffffff 26 800] ------- [38:255 -1:255 27 0] [0x2 4 1 [0 0] [40 4]] (REQUEST)
r 1.019817271 _39_ RTR  --- 0 AODV 48 [0 ffffffff 26 800] ------- [38:255 -1:255 27 0] [0x2 4 1 [0 0] [40 4]] (REQUEST)
s 1.019818022 _32_ RTR  --- 0 AODV 48 [0 ffffffff 22 800] ------- [32:255 -1:255 25 0] [0x2 6 1 [0 0] [40 4]] (REQUEST)
r 1.020372336 _9_ MAC  --- 0 AODV 48 [0 ffffffff 2a 800] ------- [42:255 -1:255 26 0] [0x2 5 1 [0 0] [40 4]] (REQUEST)
r 1.020372601 _27_ MAC  --- 0 AODV 48 [0 ffffffff 2a 800] ------- [42:255 -1:255 26 0] [0x2 5 1 [0 0] [40 4]] (REQUEST)
r 1.020372729 _8_ MAC  --- 0 AODV 48 [0 ffffffff 2a 800] ------- [42:255 -1:255 26 0] [0x2 5 1 [0 0] [40 4]] (REQUEST)
r 1.020397336 _9_ RTR  --- 0 AODV 48 [0 ffffffff 2a 800] ------- [42:255 -1:255 26 0] [0x2 5 1 [0 0] [40 4]] (REQUEST)
r 1.020397601 _27_ RTR  --- 0 AODV 48 [0 ffffffff 2a 800] ------- [42:255 -1:255 26 0] [0x2 5 1 [0 0] [40 4]] (REQUEST)
r 1.020397729 _8_ RTR  --- 0 AODV 48 [0 ffffffff 2a 800] ------- [42:255 -1:255 26 0] [0x2 5 1 [0 0] [40 4]] (REQUEST)
s 1.020799242 _23_ RTR  --- 0 AODV 48 [0 ffffffff 1b 800] ------- [23:255 -1:255 26 0] [0x2 5 1 [0 0] [40 4]] (REQUEST)
s 1.020871183 _12_ RTR  --- 0 AODV 48 [0 ffffffff b 800] ------- [12:255 -1:255 27 0] [0x2 4 1 [0 0] [40 4]] (REQUEST)
s 1.021066183 _12_ MAC  --- 0 AODV 106 [0 ffffffff c 800] ------- [12:255 -1:255 27 0] [0x2 4 1 [0 0] [40 4]] (REQUEST)
s 1.021086583 _8_ RTR  --- 0 AODV 48 [0 ffffffff 9 800] ------- [8:255 -1:255 27 0] [0x2 4 1 [0 0] [40 4]] (REQUEST)
s 1.021087334 _32_ MAC  --- 0 AODV 106 [0 ffffffff 20 800] ------- [32:255 -1:255 25 0] [0x2 6 1 [0 0] [40 4]] (REQUEST)
s 1.021228880 _28_ RTR  --- 0 AODV 48 [0 ffffffff 22 800] ------- [28:255 -1:255 25 0] [0x2 6 1 [0 0] [40 4]] (REQUEST)
s 1.021860242 _20_ RTR  --- 0 AODV 48 [0 ffffffff 24 800] ------- [20:255 -1:255 26 0] [0x2 5 1 [0 0] [40 4]] (REQUEST)
r 1.021914852 _11_ MAC  --- 0 AODV 48 [0 ffffffff c 800] ------- [12:255 -1:255 27 0] [0x2 4 1 [0 0] [40 4]] (REQUEST)
r 1.021914873 _15_ MAC  --- 0 AODV 48 [0 ffffffff c 800] ------- [12:255 -1:255 27 0] [0x2 4 1 [0 0] [40 4]] (REQUEST)
r 1.021914928 _14_ MAC  --- 0 AODV 48 [0 ffffffff c 800] ------- [12:255 -1:255 27 0] [0x2 4 1 [0 0] [40 4]] (REQUEST)
r 1.021935798 _23_ MAC  --- 0 AODV 48 [0 ffffffff 20 800] ------- [32:255 -1:255 25 0] [0x2 6 1 [0 0] [40 4]] (REQUEST)
r 1.021935932 _24_ MAC  --- 0 AODV 48 [0 ffffffff 20 800] ------- [32:255 -1:255 25 0] [0x2 6 1 [0 0] [40 4]] (REQUEST)
r 1.021935986 _34_ MAC  --- 0 AODV 48 [0 ffffffff 20 800] ------- [32:255 -1:255 25 0] [0x2 6 1 [0 0] [40 4]] (REQUEST)
r 1.021936021 _31_ MAC  --- 0 AODV 48 [0 ffffffff 20 800] ------- [32:255 -1:255 25 0] [0x2 6 1 [0 0] [40 4]] (REQUEST)
r 1.021936151 _22_ MAC  --- 0 AODV 48 [0 ffffffff 20 800] ------- [32:255 -1:255 25 0] [0x2 6 1 [0 0] [40 4]] (REQUEST)
r 1.021939852 _11_ RTR  --- 0 AODV 48 [0 ffffffff c 800] ------- [12:255 -1:255 27 0] [0x2 4 1 [0 0] [40 4]] (REQUEST)
r 1.021939873 _15_ RTR  --- 0 AODV 48 [0 ffffffff c 800] ------- [12:255 -1:255 27 0] [0x2 4 1 [0 0] [40 4]] (REQUEST)
r 1.021939928 _14_ RTR  --- 0 AODV 48 [0 ffffffff c 800] ------- [12:255 -1:255 27 0] [0x2 4 1 [0 0] [40 4]] (REQUEST)
r 1.021960798 _23_ RTR  --- 0 AODV 48 [0 ffffffff 20 800] ------- [32:255 -1:255 25 0] [0x2 6 1 [0 0] [40 4]] (REQUEST)
r 1.021960932 _24_ RTR  --- 0 AODV 48 [0 ffffffff 20 800] ------- [32:255 -1:255 25 0] [0x2 6 1 [0 0] [40 4]] (REQUEST)
r 1.021960986 _34_ RTR  --- 0 AODV 48 [0 ffffffff 20 800] ------- [32:255 -1:255 25 0] [0x2 6 1 [0 0] [40 4]] (REQUEST)
r 1.021961021 _31_ RTR  --- 0 AODV 48 [0 ffffffff 20 800] ------- [32:255 -1:255 25 0] [0x2 6 1 [0 0] [40 4]] (REQUEST)
r 1.021961151 _22_ RTR  --- 0 AODV 48 [0 ffffffff 20 800] ------- [32:255 -1:255 25 0] [0x2 6 1 [0 0] [40 4]] (REQUEST)
s 1.022147430 _14_ RTR  --- 0 AODV 48 [0 ffffffff d 800] ------- [14:255 -1:255 26 0] [0x2 5 1 [0 0] [40 4]] (REQUEST)
s 1.022193722 _19_ RTR  --- 0 AODV 48 [0 ffffffff 27 800] ------- [19:255 -1:255 27 0] [0x2 4 1 [0 0] [40 4]] (REQUEST)
s 1.022245798 _23_ MAC  --- 0 AODV 106 [0 ffffffff 17 800] ------- [23:255 -1:255 26 0] [0x2 5 1 [0 0] [40 4]] (REQUEST)
s 1.022328722 _19_ MAC  --- 0 AODV 106 [0 ffffffff 13 800] ------- [19:255 -1:255 27 0] [0x2 4 1 [0 0] [40 4]] (REQUEST)
s 1.022342430 _14_ MAC  --- 0 AODV 106 [0 ffffffff e 800] ------- [14:255 -1:255 26 0] [0x2 5 1 [0 0] [40 4]] (REQUEST)
r 1.023094235 _27_ MAC  --- 0 AODV 48 [0 ffffffff 17 800] ------- [23:255 -1:255 26 0] [0x2 5 1 [0 0] [40 4]] (REQUEST)
r 1.023094261 _32_ MAC  --- 0 AODV 48 [0 ffffffff 17 800] ------- [23:255 -1:255 26 0] [0x2 5 1 [0 0] [40 4]] (REQUEST)
r 1.023094274 _34_ MAC  --- 0 AODV 48 [0 ffffffff 17 800] ------- [23:255 -1:255 26 0] [0x2 5 1 [0 0] [40 4]] (REQUEST)
r 1.023094501 _24_ MAC  --- 0 AODV 48 [0 ffffffff 17 800] ------- [23:255 -1:255 26 0] [0x2 5 1 [0 0] [40 4]] (REQUEST)
r 1.023119235 _27_ RTR  --- 0 AODV 48 [0 ffffffff 17 800] ------- [23:255 -1:255 26 0] [0x2 5 1 [0 0] [40 4]] (REQUEST)
r 1.023119261 _32_ RTR  --- 0 AODV 48 [0 ffffffff 17 800] ------- [23:255 -1:255 26 0] [0x2 5 1 [0 0] [40 4]] (REQUEST)
r 1.023119274 _34_ RTR  --- 0 AODV 48 [0 ffffffff 17 800] ------- [23:255 -1:255 26 0] [0x2 5 1 [0 0] [40 4]] (REQUEST)
r 1.023119501 _24_ RTR  --- 0 AODV 48 [0 ffffffff 17 800] ------- [23:255 -1:255 26 0] [0x2 5 1 [0 0] [40 4]] (REQUEST)
r 1.023177230 _38_ MAC  --- 0 AODV 48 [0 ffffffff 13 800] ------- [19:255 -1:255 27 0] [0x2 4 1 [0 0] [40 4]] (REQUEST)
r 1.023177274 _39_ MAC  --- 0 AODV 48 [0 ffffffff 13 800] ------- [19:255 -1:255 27 0] [0x2 4 1 [0 0] [40 4]] (REQUEST)
r 1.023191117 _13_ MAC  --- 0 AODV 48 [0 ffffffff e 800] ------- [14:255 -1:255 26 0] [0x2 5 1 [0 0] [40 4]] (REQUEST)
r 1.023191175 _12_ MAC  --- 0 AODV 48 [0 ffffffff e 800] ------- [14:255 -1:255 26 0] [0x2 5 1 [0 0] [40 4]] (REQUEST)
r 1.023202230 _38_ RTR  --- 0 AODV 48 [0 ffffffff 13 800] ------- [19:255 -1:255 27 0] [0x2 4 1 [0 0] [40 4]] (REQUEST)
r 1.023202274 _39_ RTR  --- 0 AODV 48 [0 ffffffff 13 800] ------- [19:255 -1:255 27 0] [0x2 4 1 [0 0] [40 4]] (REQUEST)
r 1.023216117 _13_ RTR  --- 0 AODV 48 [0 ffffffff e 800] ------- [14:255 -1:255 26 0] [0x2 5 1 [0 0] [40 4]] (REQUEST)
r 1.023216175 _12_ RTR  --- 0 AODV 48 [0 ffffffff e 800] ------- [14:255 -1:255 26 0] [0x2 5 1 [0 0] [40 4]] (REQUEST)
s 1.023588885 _20_ MAC  --- 0 AODV 106 [0 ffffffff 14 800] ------- [20:255 -1:255 26 0] [0x2 5 1 [0 0] [40 4]] (REQUEST)
s 1.023608755 _28_ MAC  --- 0 AODV 106 [0 ffffffff 1c 800] ------- [28:255 -1:255 25 0] [0x2 6 1 [0 0] [40 4]] (REQUEST)
r 1.024437284 _36_ MAC  --- 0 AODV 48 [0 ffffffff 14 800] ------- [20:255 -1:255 26 0] [0x2 5 1 [0 0] [40 4]] (REQUEST)
r 1.024437308 _24_ MAC  --- 0 AODV 48 [0 ffffffff 14 800] ------- [20:255 -1:255 26 0] [0x2 5 1 [0 0] [40 4]] (REQUEST)
r 1.024437502 _31_ MAC  --- 0 AODV 48 [0 ffffffff 14 800] ------- [20:255 -1:255 26 0] [0x2 5 1 [0 0] [40 4]] (REQUEST)
r 1.024456949 _6_ MAC  --- 0 AODV 48 [0 ffffffff 1c 800] ------- [28:255 -1:255 25 0] [0x2 6 1 [0 0] [40 4]] (REQUEST)
r 1.024457191 _43_ MAC  --- 0 AODV 48 [0 ffffffff 1c 800] ------- [28:255 -1:255 25 0] [0x2 6 1 [0 0] [40 4]] (REQUEST)
D 1.024457237 _34_ MAC  COL 0 AODV 106 [0 ffffffff 1c 800] ------- [28:255 -1:255 25 0] [0x2 6 1 [0 0] [40 4]] (REQUEST)
r 1.024462284 _36_ RTR  --- 0 AODV 48 [0 ffffffff 14 800] ------- [20:255 -1:255 26 0] [0x2 5 1 [0 0] [40 4]] (REQUEST)
r 1.024462308 _24_ RTR  --- 0 AODV 48 [0 ffffffff 14 800] ------- [20:255 -1:255 26 0] [0x2 5 1 [0 0] [40 4]] (REQUEST)
r 1.024462502 _31_ RTR  --- 0 AODV 48 [0 ffffffff 14 800] ------- [20:255 -1:255 26 0] [0x2 5 1 [0 0] [40 4]] (REQUEST)
r 1.024481949 _6_ RTR  --- 0 AODV 48 [0 ffffffff 1c 800] ------- [28:255 -1:255 25 0] [0x2 6 1 [0 0] [40 4]] (REQUEST)
r 1.024482191 _43_ RTR  --- 0 AODV 48 [0 ffffffff 1c 800] ------- [28:255 -1:255 25 0] [0x2 6 1 [0 0] [40 4]] (REQUEST)
s 1.024972171 _8_ MAC  --- 0 AODV 106 [0 ffffffff 8 800] ------- [8:255 -1:255 27 0] [0x2 4 1 [0 0] [40 4]] (REQUEST)
s 1.025178832 _24_ RTR  --- 0 AODV 48 [0 ffffffff 24 800] ------- [24:255 -1:255 26 0] [0x2 5 1 [0 0] [40 4]] (REQUEST)
s 1.025553832 _24_ MAC  --- 0 AODV 106 [0 ffffffff 18 800] ------- [24:255 -1:255 26 0] [0x2 5 1 [0 0] [40 4]] (REQUEST)
s 1.025805771 _6_ RTR  --- 0 AODV 48 [0 ffffffff 22 800] ------- [6:255 -1:255 25 0] [0x2 6 1 [0 0] [40 4]] (REQUEST)
r 1.025820933 _9_ MAC  --- 0 AODV 48 [0 ffffffff 8 800] ------- [8:255 -1:255 27 0] [0x2 4 1 [0 0] [40 4]] (REQUEST)
r 1.025820960 _7_ MAC  --- 0 AODV 48 [0 ffffffff 8 800] ------- [8:255 -1:255 27 0] [0x2 4 1 [0 0] [40 4]] (REQUEST)
r 1.025820961 _42_ MAC  --- 0 AODV 48 [0 ffffffff 8 800] ------- [8:255 -1:255 27 0] [0x2 4 1 [0 0] [40 4]] (REQUEST)
r 1.025845933 _9_ RTR  --- 0 AODV 48 [0 ffffffff 8 800] ------- [8:255 -1:255 27 0] [0x2 4 1 [0 0] [40 4]] (REQUEST)
r 1.025845960 _7_ RTR  --- 0 AODV 48 [0 ffffffff 8 800] ------- [8:255 -1:255 27 0] [0x2 4 1 [0 0] [40 4]] (REQUEST)
r 1.025845961 _42_ RTR  --- 0 AODV 48 [0 ffffffff 8 800] ------- [8:255 -1:255 27 0] [0x2 4 1 [0 0] [40 4]] (REQUEST)
r 1.026402254 _20_ MAC  --- 0 AODV 48 [0 ffffffff 18 800] ------- [24:255 -1:255 26 0] [0x2 5 1 [0 0] [40 4]] (REQUEST)
r 1.026402283 _31_ MAC  --- 0 AODV 48 [0 ffffffff 18 800] ------- [24:255 -1:255 26 0] [0x2 5 1 [0 0] [40 4]] (REQUEST)
r 1.026402429 _32_ MAC  --- 0 AODV 48 [0 ffffffff 18 800] ------- [24:255 -1:255 26 0] [0x2 5 1 [0 0] [40 4]] (REQUEST)
r 1.026402483 _36_ MAC  --- 0 AODV 48 [0 ffffffff 18 800] ------- [24:255 -1:255 26 0] [0x2 5 1 [0 0] [40 4]] (REQUEST)
D 1.026402535 _23_ MAC  COL 0 AODV 106 [0 ffffffff 18 800] ------- [24:255 -1:255 26 0] [0x2 5 1 [0 0] [40 4]] (REQUEST)
r 1.026427254 _20_ RTR  --- 0 AODV 48 [0 ffffffff 18 800] ------- [24:255 -1:255 26 0] [0x2 5 1 [0 0] [40 4]] (REQUEST)
r 1.026427283 _31_ RTR  --- 0 AODV 48 [0 ffffffff 18 800] ------- [24:255 -1:255 26 0] [0x2 5 1 [0 0] [40 4]] (REQUEST)
r 1.026427429 _32_ RTR  --- 0 AODV 48 [0 ffffffff 18 800] ------- [24:255 -1:255 26 0] [0x2 5 1 [0 0] [40 4]] (REQUEST)
r 1.026427483 _36_ RTR  --- 0 AODV 48 [0 ffffffff 18 800] ------- [24:255 -1:255 26 0] [0x2 5 1 [0 0] [40 4]] (REQUEST)