s -t 1.000000000 -Hs 40 -Hd -2 -Ni 40 -Nx 1474.00 -Ny 516.00 -Nz 0.00 -Ne -1.000000 -Nl AGT -Nw --- -Ma 0 -Md 0 -Ms 0 -Mt 0 -Is 40.0 -Id 0.0 -It cbr -Il 1000 -If 0 -Ii 0 -Iv 32 -Pn cbr -Pi 0 -Pf 0 -Po 0 
r -t 1.000000000 -Hs 40 -Hd -2 -Ni 40 -Nx 1474.00 -Ny 516.00 -Nz 0.00 -Ne -1.000000 -Nl RTR -Nw --- -Ma 0 -Md 0 -Ms 0 -Mt 0 -Is 40.0 -Id 0.0 -It cbr -Il 1000 -If 0 -Ii 0 -Iv 32 -Pn cbr -Pi 0 -Pf 0 -Po 0 
s -t 1.000000000 -Hs 40 -Hd -2 -Ni 40 -Nx 1474.00 -Ny 516.00 -Nz 0.00 -Ne -1.000000 -Nl RTR -Nw --- -Ma 0 -Md 0 -Ms 0 -Mt 0 -Is 40.255 -Id -1.255 -It AODV -Il 48 -If 0 -Ii 0 -Iv 30 -P aodv -Pt 0x2 -Ph 1 -Pb 1 -Pd 0 -Pds 0 -Ps 40 -Pss 4 -Pc REQUEST 
s -t 1.000535000 -Hs 40 -Hd -2 -Ni 40 -Nx 1474.00 -Ny 516.00 -Nz 0.00 -Ne -1.000000 -Nl MAC -Nw --- -Ma 0 -Md ffffffff -Ms 28 -Mt 800 -Is 40.255 -Id -1.255 -It AODV -Il 106 -If 0 -Ii 0 -Iv 30 -P aodv -Pt 0x2 -Ph 1 -Pb 1 -Pd 0 -Pds 0 -Ps 40 -Pss 4 -Pc REQUEST 
r -t 1.001383552 -Hs 26 -Hd -2 -Ni 26 -Nx 1637.00 -Ny 546.00 -Nz 0.00 -Ne -1.000000 -Nl MAC -Nw --- -Ma 0 -Md ffffffff -Ms 28 -Mt 800 -Is 40.255 -Id -1.255 -It AODV -Il 48 -If 0 -Ii 0 -Iv 30 -P aodv -Pt 0x2 -Ph 1 -Pb 1 -Pd 0 -Pds 0 -Ps 40 -Pss 4 -Pc REQUEST 
r -t 1.001383557 -Hs 46 -Hd -2 -Ni 46 -Nx 1307.00 -Ny 522.00 -Nz 0.00 -Ne -1.000000 -Nl MAC -Nw --- -Ma 0 -Md ffffffff -Ms 28 -Mt 800 -Is 40.255 -Id -1.255 -It AODV -Il 48 -If 0 -Ii 0 -Iv 30 -P aodv -Pt 0x2 -Ph 1 -Pb 1 -Pd 0 -Pds 0 -Ps 40 -Pss 4 -Pc REQUEST 
r -t 1.001383572 -Hs 17 -Hd -2 -Ni 17 -Nx 1367.00 -Ny 650.00 -Nz 0.00 -Ne -1.000000 -Nl MAC -Nw --- -Ma 0 -Md ffffffff -Ms 28 -Mt 800 -Is 40.255 -Id -1.255 -It AODV -Il 48 -If 0 -Ii 0 -Iv 30 -P aodv -Pt 0x2 -Ph 1 -Pb 1 -Pd 0 -Pds 0 -Ps 40 -Pss 4 -Pc REQUEST 
r -t 1.001383659 -Hs 10 -Hd -2 -Ni 10 -Nx 1358.00 -Ny 356.00 -Nz 0.00 -Ne -1.000000 -Nl MAC -Nw --- -Ma 0 -Md ffffffff -Ms 28 -Mt 800 -Is 40.255 -Id -1.255 -It AODV -Il 48 -If 0 -Ii 0 -Iv 30 -P aodv -Pt 0x2 -Ph 1 -Pb 1 -Pd 0 -Pds 0 -Ps 40 -Pss 4 -Pc REQUEST 
r -t 1.001408552 -Hs 26 -Hd -2 -Ni 26 -Nx 1637.00 -Ny 546.00 -Nz 0.00 -Ne -1.000000 -Nl RTR -Nw --- -Ma 0 -Md ffffffff -Ms 28 -Mt 800 -Is 40.255 -Id -1.255 -It AODV -Il 48 -If 0 -Ii 0 -Iv 30 -P aodv -Pt 0x2 -Ph 1 -Pb 1 -Pd 0 -Pds 0 -Ps 40 -Pss 4 -Pc REQUEST 
r -t 1.001408557 -Hs 46 -Hd -2 -Ni 46 -Nx 1307.00 -Ny 522.00 -Nz 0.00 -Ne -1.000000 -Nl RTR -Nw --- -Ma 0 -Md ffffffff -Ms 28 -Mt 800 -Is 40.255 -Id -1.255 -It AODV -Il 48 -If 0 -Ii 0 -Iv 30 -P aodv -Pt 0x2 -Ph 1 -Pb 1 -Pd 0 -Pds 0 -Ps 40 -Pss 4 -Pc REQUEST 
r -t 1.001408572 -Hs 17 -Hd -2 -Ni 17 -Nx 1367.00 -Ny 650.00 -Nz 0.00 -Ne -1.000000 -Nl RTR -Nw --- -Ma 0 -Md ffffffff -Ms 28 -Mt 800 -Is 40.255 -Id -1.255 -It AODV -Il 48 -If 0 -Ii 0 -Iv 30 -P aodv -Pt 0x2 -Ph 1 -Pb 1 -Pd 0 -Pds 0 -Ps 40 -Pss 4 -Pc REQUEST 
r -t 1.001408659 -Hs 10 -Hd -2 -Ni 10 -Nx 1358.00 -Ny 356.00 -Nz 0.00 -Ne -1.000000 -Nl RTR -Nw --- -Ma 0 -Md ffffffff -Ms 28 -Mt 800 -Is 40.255 -Id -1.255 -It AODV -Il 48 -If 0 -Ii 0 -Iv 30 -P aodv -Pt 0x2 -Ph 1 -Pb 1 -Pd 0 -Pds 0 -Ps 40 -Pss 4 -Pc REQUEST 
s -t 1.001550599 -Hs 26 -Hd -2 -Ni 26 -Nx 1637.00 -Ny 546.00 -Nz 0.00 -Ne -1.000000 -Nl RTR -Nw --- -Ma 0 -Md ffffffff -Ms 28 -Mt 800 -Is 26.255 -Id -1.255 -It AODV -Il 48 -If 0 -Ii 0 -Iv 29 -P aodv -Pt 0x2 -Ph 2 -Pb 1 -Pd 0 -Pds 0 -Ps 40 -Pss 4 -Pc REQUEST 
s -t 1.001785599 -Hs 26 -Hd -2 -Ni 26 -Nx 1637.00 -Ny 546.00 -Nz 0.00 -Ne -1.000000 -Nl MAC -Nw --- -Ma 0 -Md ffffffff -Ms 1a -Mt 800 -Is 26.255 -Id -1.255 -It AODV -Il 106 -If 0 -Ii 0 -Iv 29 -P aodv -Pt 0x2 -Ph 2 -Pb 1 -Pd 0 -Pds 0 -Ps 40 -Pss 4 -Pc REQUEST 
s -t 1.002289784 -Hs 46 -Hd -2 -Ni 46 -Nx 1307.00 -Ny 522.00 -Nz 0.00 -Ne -1.000000 -Nl RTR -Nw --- -Ma 0 -Md ffffffff -Ms 28 -Mt 800 -Is 46.255 -Id -1.255 -It AODV -Il 48 -If 0 -Ii 0 -Iv 29 -P aodv -Pt 0x2 -Ph 2 -Pb 1 -Pd 0 -Pds 0 -Ps 40 -Pss 4 -Pc REQUEST 
r -t 1.002634015 -Hs 18 -Hd -2 -Ni 18 -Nx 1758.00 -Ny 577.00 -Nz 0.00 -Ne -1.000000 -Nl MAC -Nw --- -Ma 0 -Md ffffffff -Ms 1a -Mt 800 -Is 26.255 -Id -1.255 -It AODV -Il 48 -If 0 -Ii 0 -Iv 29 -P aodv -Pt 0x2 -Ph 2 -Pb 1 -Pd 0 -Pds 0 -Ps 40 -Pss 4 -Pc REQUEST 
r -t 1.002634152 -Hs 40 -Hd -2 -Ni 40 -Nx 1474.00 -Ny 516.00 -Nz 0.00 -Ne -1.000000 -Nl MAC -Nw --- -Ma 0 -Md ffffffff -Ms 1a -Mt 800 -Is 26.255 -Id -1.255 -It AODV -Il 48 -If 0 -Ii 0 -Iv 29 -P aodv -Pt 0x2 -Ph 2 -Pb 1 -Pd 0 -Pds 0 -Ps 40 -Pss 4 -Pc REQUEST 
r -t 1.002634162 -Hs 39 -Hd -2 -Ni 39 -Nx 1736.00 -Ny 683.00 -Nz 0.00 -Ne -1.000000 -Nl MAC -Nw --- -Ma 0 -Md ffffffff -Ms 1a -Mt 800 -Is 26.255 -Id -1.255 -It AODV -Il 48 -If 0 -Ii 0 -Iv 29 -P aodv -Pt 0x2 -Ph 2 -Pb 1 -Pd 0 -Pds 0 -Ps 40 -Pss 4 -Pc REQUEST 
r -t 1.002634315 -Hs 41 -Hd -2 -Ni 41 -Nx 1739.00 -Ny 357.00 -Nz 0.00 -Ne -1.000000 -Nl MAC -Nw --- -Ma 0 -Md ffffffff -Ms 1a -Mt 800 -Is 26.255 -Id -1.255 -It AODV -Il 48 -If 0 -Ii 0 -Iv 29 -P aodv -Pt 0x2 -Ph 2 -Pb 1 -Pd 0 -Pds 0 -Ps 40 -Pss 4 -Pc REQUEST 
r -t 1.002659015 -Hs 18 -Hd -2 -Ni 18 -Nx 1758.00 -Ny 577.00 -Nz 0.00 -Ne -1.000000 -Nl RTR -Nw --- -Ma 0 -Md ffffffff -Ms 1a -Mt 800 -Is 26.255 -Id -1.255 -It AODV -Il 48 -If 0 -Ii 0 -Iv 29 -P aodv -Pt 0x2 -Ph 2 -Pb 1 -Pd 0 -Pds 0 -Ps 40 -Pss 4 -Pc REQUEST 
r -t 1.002659152 -Hs 40 -Hd -2 -Ni 40 -Nx 1474.00 -Ny 516.00 -Nz 0.00 -Ne -1.000000 -Nl RTR -Nw --- -Ma 0 -Md ffffffff -Ms 1a -Mt 800 -Is 26.255 -Id -1.255 -It AODV -Il 48 -If 0 -Ii 0 -Iv 29 -P aodv -Pt 0x2 -Ph 2 -Pb 1 -Pd 0 -Pds 0 -Ps 40 -Pss 4 -Pc REQUEST 
r -t 1.002659162 -Hs 39 -Hd -2 -Ni 39 -Nx 1736.00 -Ny 683.00 -Nz 0.00 -Ne -1.000000 -Nl RTR -Nw --- -Ma 0 -Md ffffffff -Ms 1a -Mt 800 -Is 26.255 -Id -1.255 -It AODV -Il 48 -If 0 -Ii 0 -Iv 29 -P aodv -Pt 0x2 -Ph 2 -Pb 1 -Pd 0 -Pds 0 -Ps 40 -Pss 4 -Pc REQUEST 
r -t 1.002659315 -Hs 41 -Hd -2 -Ni 41 -Nx 1739.00 -Ny 357.00 -Nz 0.00 -Ne -1.000000 -Nl RTR -Nw --- -Ma 0 -Md ffffffff -Ms 1a -Mt 800 -Is 26.255 -Id -1.255 -It AODV -Il 48 -If 0 -Ii 0 -Iv 29 -P aodv -Pt 0x2 -Ph 2 -Pb 1 -Pd 0 -Pds 0 -Ps 40 -Pss 4 -Pc REQUEST 
s -t 1.003248702 -Hs 46 -Hd -2 -Ni 46 -Nx 1307.00 -Ny 522.00 -Nz 0.00 -Ne -1.000000 -Nl MAC -Nw --- -Ma 0 -Md ffffffff -Ms 2e -Mt 800 -Is 46.255 -Id -1.255 -It AODV -Il 106 -If 0 -Ii 0 -Iv 29 -P aodv -Pt 0x2 -Ph 2 -Pb 1 -Pd 0 -Pds 0 -Ps 40 -Pss 4 -Pc REQUEST 
r -t 1.004097114 -Hs 16 -Hd -2 -Ni 16 -Nx 1184.00 -Ny 509.00 -Nz 0.00 -Ne -1.000000 -Nl MAC -Nw --- -Ma 0 -Md ffffffff -Ms 2e -Mt 800 -Is 46.255 -Id -1.255 -It AODV -Il 48 -If 0 -Ii 0 -Iv 29 -P aodv -Pt 0x2 -Ph 2 -Pb 1 -Pd 0 -Pds 0 -Ps 40 -Pss 4 -Pc REQUEST 
r -t 1.004097127 -Hs 47 -Hd -2 -Ni 47 -Nx 1228.00 -Ny 622.00 -Nz 0.00 -Ne -1.000000 -Nl MAC -Nw --- -Ma 0 -Md ffffffff -Ms 2e -Mt 800 -Is 46.255 -Id -1.255 -It AODV -Il 48 -If 0 -Ii 0 -Iv 29 -P aodv -Pt 0x2 -Ph 2 -Pb 1 -Pd 0 -Pds 0 -Ps 40 -Pss 4 -Pc REQUEST 
r -t 1.004097173 -Hs 17 -Hd -2 -Ni 17 -Nx 1367.00 -Ny 650.00 -Nz 0.00 -Ne -1.000000 -Nl MAC -Nw --- -Ma 0 -Md ffffffff -Ms 2e -Mt 800 -Is 46.255 -Id -1.255 -It AODV -Il 48 -If 0 -Ii 0 -Iv 29 -P aodv -Pt 0x2 -Ph 2 -Pb 1 -Pd 0 -Pds 0 -Ps 40 -Pss 4 -Pc REQUEST 
r -t 1.004097259 -Hs 40 -Hd -2 -Ni 40 -Nx 1474.00 -Ny 516.00 -Nz 0.00 -Ne -1.000000 -Nl MAC -Nw --- -Ma 0 -Md ffffffff -Ms 2e -Mt 800 -Is 46.255 -Id -1.255 -It AODV -Il 48 -If 0 -Ii 0 -Iv 29 -P aodv -Pt 0x2 -Ph 2 -Pb 1 -Pd 0 -Pds 0 -Ps 40 -Pss 4 -Pc REQUEST 
r -t 1.004097281 -Hs 10 -Hd -2 -Ni 10 -Nx 1358.00 -Ny 356.00 -Nz 0.00 -Ne -1.000000 -Nl MAC -Nw --- -Ma 0 -Md ffffffff -Ms 2e -Mt 800 -Is 46.255 -Id -1.255 -It AODV -Il 48 -If 0 -Ii 0 -Iv 29 -P aodv -Pt 0x2 -Ph 2 -Pb 1 -Pd 0 -Pds 0 -Ps 40 -Pss 4 -Pc REQUEST 
r -t 1.004097362 -Hs 45 -Hd -2 -Ni 45 -Nx 1131.00 -Ny 431.00 -Nz 0.00 -Ne -1.000000 -Nl MAC -Nw --- -Ma 0 -Md ffffffff -Ms 2e -Mt 800 -Is 46.255 -Id -1.255 -It AODV -Il 48 -If 0 -Ii 0 -Iv 29 -P aodv -Pt 0x2 -Ph 2 -Pb 1 -Pd 0 -Pds 0 -Ps 40 -Pss 4 -Pc REQUEST 
r -t 1.004097457 -Hs 37 -Hd -2 -Ni 37 -Nx 1195.00 -Ny 719.00 -Nz 0.00 -Ne -1.000000 -Nl MAC -Nw --- -Ma 0 -Md ffffffff -Ms 2e -Mt 800 -Is 46.255 -Id -1.255 -It AODV -Il 48 -If 0 -Ii 0 -Iv 29 -P aodv -Pt 0x2 -Ph 2 -Pb 1 -Pd 0 -Pds 0 -Ps 40 -Pss 4 -Pc REQUEST 
r -t 1.004097487 -Hs 44 -Hd -2 -Ni 44 -Nx 1089.00 -Ny 611.00 -Nz 0.00 -Ne -1.000000 -Nl MAC -Nw --- -Ma 0 -Md ffffffff -Ms 2e -Mt 800 -Is 46.255 -Id -1.255 -It AODV -Il 48 -If 0 -Ii 0 -Iv 29 -P aodv -Pt 0x2 -Ph 2 -Pb 1 -Pd 0 -Pds 0 -Ps 40 -Pss 4 -Pc REQUEST 
r -t 1.004122114 -Hs 16 -Hd -2 -Ni 16 -Nx 1184.00 -Ny 509.00 -Nz 0.00 -Ne -1.000000 -Nl RTR -Nw --- -Ma 0 -Md ffffffff -Ms 2e -Mt 800 -Is 46.255 -Id -1.255 -It AODV -Il 48 -If 0 -Ii 0 -Iv 29 -P aodv -Pt 0x2 -Ph 2 -Pb 1 -Pd 0 -Pds 0 -Ps 40 -Pss 4 -Pc REQUEST 
r -t 1.004122127 -Hs 47 -Hd -2 -Ni 47 -Nx 1228.00 -Ny 622.00 -Nz 0.00 -Ne -1.000000 -Nl RTR -Nw --- -Ma 0 -Md ffffffff -Ms 2e -Mt 800 -Is 46.255 -Id -1.255 -It AODV -Il 48 -If 0 -Ii 0 -Iv 29 -P aodv -Pt 0x2 -Ph 2 -Pb 1 -Pd 0 -Pds 0 -Ps 40 -Pss 4 -Pc REQUEST 
r -t 1.004122173 -Hs 17 -Hd -2 -Ni 17 -Nx 1367.00 -Ny 650.00 -Nz 0.00 -Ne -1.000000 -Nl RTR -Nw --- -Ma 0 -Md ffffffff -Ms 2e -Mt 800 -Is 46.255 -Id -1.255 -It AODV -Il 48 -If 0 -Ii 0 -Iv 29 -P aodv -Pt 0x2 -Ph 2 -Pb 1 -Pd 0 -Pds 0 -Ps 40 -Pss 4 -Pc REQUEST 
r -t 1.004122259 -Hs 40 -Hd -2 -Ni 40 -Nx 1474.00 -Ny 516.00 -Nz 0.00 -Ne -1.000000 -Nl RTR -Nw --- -Ma 0 -Md ffffffff -Ms 2e -Mt 800 -Is 46.255 -Id -1.255 -It AODV -Il 48 -If 0 -Ii 0 -Iv 29 -P aodv -Pt 0x2 -Ph 2 -Pb 1 -Pd 0 -Pds 0 -Ps 40 -Pss 4 -Pc REQUEST 
r -t 1.004122281 -Hs 10 -Hd -2 -Ni 10 -Nx 1358.00 -Ny 356.00 -Nz 0.00 -Ne -1.000000 -Nl RTR -Nw --- -Ma 0 -Md ffffffff -Ms 2e -Mt 800 -Is 46.255 -Id -1.255 -It AODV -Il 48 -If 0 -Ii 0 -Iv 29 -P aodv -Pt 0x2 -Ph 2 -Pb 1 -Pd 0 -Pds 0 -Ps 40 -Pss 4 -Pc REQUEST 
r -t 1.004122362 -Hs 45 -Hd -2 -Ni 45 -Nx 1131.00 -Ny 431.00 -Nz 0.00 -Ne -1.000000 -Nl RTR -Nw --- -Ma 0 -Md ffffffff -Ms 2e -Mt 800 -Is 46.255 -Id -1.255 -It AODV -Il 48 -If 0 -Ii 0 -Iv 29 -P aodv -Pt 0x2 -Ph 2 -Pb 1 -Pd 0 -Pds 0 -Ps 40 -Pss 4 -Pc REQUEST 
r -t 1.004122457 -Hs 37 -Hd -2 -Ni 37 -Nx 1195.00 -Ny 719.00 -Nz 0.00 -Ne -1.000000 -Nl RTR -Nw --- -Ma 0 -Md ffffffff -Ms 2e -Mt 800 -Is 46.255 -Id -1.255 -It AODV -Il 48 -If 0 -Ii 0 -Iv 29 -P aodv -Pt 0x2 -Ph 2 -Pb 1 -Pd 0 -Pds 0 -Ps 40 -Pss 4 -Pc REQUEST 
r -t 1.004122487 -Hs 44 -Hd -2 -Ni 44 -Nx 1089.00 -Ny 611.00 -Nz 0.00 -Ne -1.000000 -Nl RTR -Nw --- -Ma 0 -Md ffffffff -Ms 2e -Mt 800 -Is 46.255 -Id -1.255 -It AODV -Il 48 -If 0 -Ii 0 -Iv 29 -P aodv -Pt 0x2 -Ph 2 -Pb 1 -Pd 0 -Pds 0 -Ps 40 -Pss 4 -Pc REQUEST 
s -t 1.004550060 -Hs 16 -Hd -2 -Ni 16 -Nx 1184.00 -Ny 509.00 -Nz 0.00 -Ne -1.000000 -Nl RTR -Nw --- -Ma 0 -Md ffffffff -Ms 2e -Mt 800 -Is 16.255 -Id -1.255 -It AODV -Il 48 -If 0 -Ii 0 -Iv 28 -P aodv -Pt 0x2 -Ph 3 -Pb 1 -Pd 0 -Pds 0 -Ps 40 -Pss 4 -Pc REQUEST 
s -t 1.005105060 -Hs 16 -Hd -2 -Ni 16 -Nx 1184.00 -Ny 509.00 -Nz 0.00 -Ne -1.000000 -Nl MAC -Nw --- -Ma 0 -Md ffffffff -Ms 10 -Mt 800 -Is 16.255 -Id -1.255 -It AODV -Il 106 -If 0 -Ii 0 -Iv 28 -P aodv -Pt 0x2 -Ph 3 -Pb 1 -Pd 0 -Pds 0 -Ps 40 -Pss 4 -Pc REQUEST 
s -t 1.005260445 -Hs 45 -Hd -2 -Ni 45 -Nx 1131.00 -Ny 431.00 -Nz 0.00 -Ne -1.000000 -Nl RTR -Nw --- -Ma 0 -Md ffffffff -Ms 2e -Mt 800 -Is 45.255 -Id -1.255 -It AODV -Il 48 -If 0 -Ii 0 -Iv 28 -P aodv -Pt 0x2 -Ph 3 -Pb 1 -Pd 0 -Pds 0 -Ps 40 -Pss 4 -Pc REQUEST 
s -t 1.005749953 -Hs 39 -Hd -2 -Ni 39 -Nx 1736.00 -Ny 683.00 -Nz 0.00 -Ne -1.000000 -Nl RTR -Nw --- -Ma 0 -Md ffffffff -Ms 1a -Mt 800 -Is 39.255 -Id -1.255 -It AODV -Il 48 -If 0 -Ii 0 -Iv 28 -P aodv -Pt 0x2 -Ph 3 -Pb 1 -Pd 0 -Pds 0 -Ps 40 -Pss 4 -Pc REQUEST 
s -t 1.005820305 -Hs 17 -Hd -2 -Ni 17 -Nx 1367.00 -Ny 650.00 -Nz 0.00 -Ne -1.000000 -Nl RTR -Nw --- -Ma 0 -Md ffffffff -Ms 28 -Mt 800 -Is 17.255 -Id -1.255 -It AODV -Il 48 -If 0 -Ii 0 -Iv 29 -P aodv -Pt 0x2 -Ph 2 -Pb 1 -Pd 0 -Pds 0 -Ps 40 -Pss 4 -Pc REQUEST 
r -t 1.005953374 -Hs 45 -Hd -2 -Ni 45 -Nx 1131.00 -Ny 431.00 -Nz 0.00 -Ne -1.000000 -Nl MAC -Nw --- -Ma 0 -Md ffffffff -Ms 10 -Mt 800 -Is 16.255 -Id -1.255 -It AODV -Il 48 -If 0 -Ii 0 -Iv 28 -P aodv -Pt 0x2 -Ph 3 -Pb 1 -Pd 0 -Pds 0 -Ps 40 -Pss 4 -Pc REQUEST 
r -t 1.005953464 -Hs 47 -Hd -2 -Ni 47 -Nx 1228.00 -Ny 622.00 -Nz 0.00 -Ne -1.000000 -Nl MAC -Nw --- -Ma 0 -Md ffffffff -Ms 10 -Mt 800 -Is 16.255 -Id -1.255 -It AODV -Il 48 -If 0 -Ii 0 -Iv 28 -P aodv -Pt 0x2 -Ph 3 -Pb 1 -Pd 0 -Pds 0 -Ps 40 -Pss 4 -Pc REQUEST 
r -t 1.005953472 -Hs 46 -Hd -2 -Ni 46 -Nx 1307.00 -Ny 522.00 -Nz 0.00 -Ne -1.000000 -Nl MAC -Nw --- -Ma 0 -Md ffffffff -Ms 10 -Mt 800 -Is 16.255 -Id -1.255 -It AODV -Il 48 -If 0 -Ii 0 -Iv 28 -P aodv -Pt 0x2 -Ph 3 -Pb 1 -Pd 0 -Pds 0 -Ps 40 -Pss 4 -Pc REQUEST 
r -t 1.005953524 -Hs 44 -Hd -2 -Ni 44 -Nx 1089.00 -Ny 611.00 -Nz 0.00 -Ne -1.000000 -Nl MAC -Nw --- -Ma 0 -Md ffffffff -Ms 10 -Mt 800 -Is 16.255 -Id -1.255 -It AODV -Il 48 -If 0 -Ii 0 -Iv 28 -P aodv -Pt 0x2 -Ph 3 -Pb 1 -Pd 0 -Pds 0 -Ps 40 -Pss 4 -Pc REQUEST 
r -t 1.005953695 -Hs 27 -Hd -2 -Ni 27 -Nx 997.00 -Ny 473.00 -Nz 0.00 -Ne -1.000000 -Nl MAC -Nw --- -Ma 0 -Md ffffffff -Ms 10 -Mt 800 -Is 16.255 -Id -1.255 -It AODV -Il 48 -If 0 -Ii 0 -Iv 28 -P aodv -Pt 0x2 -Ph 3 -Pb 1 -Pd 0 -Pds 0 -Ps 40 -Pss 4 -Pc REQUEST 
r -t 1.005953761 -Hs 37 -Hd -2 -Ni 37 -Nx 1195.00 -Ny 719.00 -Nz 0.00 -Ne -1.000000 -Nl MAC -Nw --- -Ma 0 -Md ffffffff -Ms 10 -Mt 800 -Is 16.255 -Id -1.255 -It AODV -Il 48 -If 0 -Ii 0 -Iv 28 -P aodv -Pt 0x2 -Ph 3 -Pb 1 -Pd 0 -Pds 0 -Ps 40 -Pss 4 -Pc REQUEST 
r -t 1.005953830 -Hs 17 -Hd -2 -Ni 17 -Nx 1367.00 -Ny 650.00 -Nz 0.00 -Ne -1.000000 -Nl MAC -Nw --- -Ma 0 -Md ffffffff -Ms 10 -Mt 800 -Is 16.255 -Id -1.255 -It AODV -Il 48 -If 0 -Ii 0 -Iv 28 -P aodv -Pt 0x2 -Ph 3 -Pb 1 -Pd 0 -Pds 0 -Ps 40 -Pss 4 -Pc REQUEST 
r -t 1.005953832 -Hs 10 -Hd -2 -Ni 10 -Nx 1358.00 -Ny 356.00 -Nz 0.00 -Ne -1.000000 -Nl MAC -Nw --- -Ma 0 -Md ffffffff -Ms 10 -Mt 800 -Is 16.255 -Id -1.255 -It AODV -Il 48 -If 0 -Ii 0 -Iv 28 -P aodv -Pt 0x2 -Ph 3 -Pb 1 -Pd 0 -Pds 0 -Ps 40 -Pss 4 -Pc REQUEST 
r -t 1.005978374 -Hs 45 -Hd -2 -Ni 45 -Nx 1131.00 -Ny 431.00 -Nz 0.00 -Ne -1.000000 -Nl RTR -Nw --- -Ma 0 -Md ffffffff -Ms 10 -Mt 800 -Is 16.255 -Id -1.255 -It AODV -Il 48 -If 0 -Ii 0 -Iv 28 -P aodv -Pt 0x2 -Ph 3 -Pb 1 -Pd 0 -Pds 0 -Ps 40 -Pss 4 -Pc REQUEST 
r -t 1.005978464 -Hs 47 -Hd -2 -Ni 47 -Nx 1228.00 -Ny 622.00 -Nz 0.00 -Ne -1.000000 -Nl RTR -Nw --- -Ma 0 -Md ffffffff -Ms 10 -Mt 800 -Is 16.255 -Id -1.255 -It AODV -Il 48 -If 0 -Ii 0 -Iv 28 -P aodv -Pt 0x2 -Ph 3 -Pb 1 -Pd 0 -Pds 0 -Ps 40 -Pss 4 -Pc REQUEST 
r -t 1.005978472 -Hs 46 -Hd -2 -Ni 46 -Nx 1307.00 -Ny 522.00 -Nz 0.00 -Ne -1.000000 -Nl RTR -Nw --- -Ma 0 -Md ffffffff -Ms 10 -Mt 800 -Is 16.255 -Id -1.255 -It AODV -Il 48 -If 0 -Ii 0 -Iv 28 -P aodv -Pt 0x2 -Ph 3 -Pb 1 -Pd 0 -Pds 0 -Ps 40 -Pss 4 -Pc REQUEST 
r -t 1.005978524 -Hs 44 -Hd -2 -Ni 44 -Nx 1089.00 -Ny 611.00 -Nz 0.00 -Ne -1.000000 -Nl RTR -Nw --- -Ma 0 -Md ffffffff -Ms 10 -Mt 800 -Is 16.255 -Id -1.255 -It AODV -Il 48 -If 0 -Ii 0 -Iv 28 -P aodv -Pt 0x2 -Ph 3 -Pb 1 -Pd 0 -Pds 0 -Ps 40 -Pss 4 -Pc REQUEST 
r -t 1.005978695 -Hs 27 -Hd -2 -Ni 27 -Nx 997.00 -Ny 473.00 -Nz 0.00 -Ne -1.000000 -Nl RTR -Nw --- -Ma 0 -Md ffffffff -Ms 10 -Mt 800 -Is 16.255 -Id -1.255 -It AODV -Il 48 -If 0 -Ii 0 -Iv 28 -P aodv -Pt 0x2 -Ph 3 -Pb 1 -Pd 0 -Pds 0 -Ps 40 -Pss 4 -Pc REQUEST 
r -t 1.005978761 -Hs 37 -Hd -2 -Ni 37 -Nx 1195.00 -Ny 719.00 -Nz 0.00 -Ne -1.000000 -Nl RTR -Nw --- -Ma 0 -Md ffffffff -Ms 10 -Mt 800 -Is 16.255 -Id -1.255 -It AODV -Il 48 -If 0 -Ii 0 -Iv 28 -P aodv -Pt 0x2 -Ph 3 -Pb 1 -Pd 0 -Pds 0 -Ps 40 -Pss 4 -Pc REQUEST 
r -t 1.005978830 -Hs 17 -Hd -2 -Ni 17 -Nx 1367.00 -Ny 650.00 -Nz 0.00 -Ne -1.000000 -Nl RTR -Nw --- -Ma 0 -Md ffffffff -Ms 10 -Mt 800 -Is 16.255 -Id -1.255 -It AODV -Il 48 -If 0 -Ii 0 -Iv 28 -P aodv -Pt 0x2 -Ph 3 -Pb 1 -Pd 0 -Pds 0 -Ps 40 -Pss 4 -Pc REQUEST 
r -t 1.005978832 -Hs 10 -Hd -2 -Ni 10 -Nx 1358.00 -Ny 356.00 -Nz 0.00 -Ne -1.000000 -Nl RTR -Nw --- -Ma 0 -Md ffffffff -Ms 10 -Mt 800 -Is 16.255 -Id -1.255 -It AODV -Il 48 -If 0 -Ii 0 -Iv 28 -P aodv -Pt 0x2 -Ph 3 -Pb 1 -Pd 0 -Pds 0 -Ps 40 -Pss 4 -Pc REQUEST 
s -t 1.006144953 -Hs 39 -Hd -2 -Ni 39 -Nx 1736.00 -Ny 683.00 -Nz 0.00 -Ne -1.000000 -Nl MAC -Nw --- -Ma 0 -Md ffffffff -Ms 27 -Mt 800 -Is 39.255 -Id -1.255 -It AODV -Il 106 -If 0 -Ii 0 -Iv 28 -P aodv -Pt 0x2 -Ph 3 -Pb 1 -Pd 0 -Pds 0 -Ps 40 -Pss 4 -Pc REQUEST 
s -t 1.006343374 -Hs 45 -Hd -2 -Ni 45 -Nx 1131.00 -Ny 431.00 -Nz 0.00 -Ne -1.000000 -Nl MAC -Nw --- -Ma 0 -Md ffffffff -Ms 2d -Mt 800 -Is 45.255 -Id -1.255 -It AODV -Il 106 -If 0 -Ii 0 -Iv 28 -P aodv -Pt 0x2 -Ph 3 -Pb 1 -Pd 0 -Pds 0 -Ps 40 -Pss 4 -Pc REQUEST 
r -t 1.006993314 -Hs 18 -Hd -2 -Ni 18 -Nx 1758.00 -Ny 577.00 -Nz 0.00 -Ne -1.000000 -Nl MAC -Nw --- -Ma 0 -Md ffffffff -Ms 27 -Mt 800 -Is 39.255 -Id -1.255 -It AODV -Il 48 -If 0 -Ii 0 -Iv 28 -P aodv -Pt 0x2 -Ph 3 -Pb 1 -Pd 0 -Pds 0 -Ps 40 -Pss 4 -Pc REQUEST 
r -t 1.006993505 -Hs 19 -Hd -2 -Ni 19 -Nx 1779.00 -Ny 843.00 -Nz 0.00 -Ne -1.000000 -Nl MAC -Nw --- -Ma 0 -Md ffffffff -Ms 27 -Mt 800 -Is 39.255 -Id -1.255 -It AODV -Il 48 -If 0 -Ii 0 -Iv 28 -P aodv -Pt 0x2 -Ph 3 -Pb 1 -Pd 0 -Pds 0 -Ps 40 -Pss 4 -Pc REQUEST 
r -t 1.006993516 -Hs 26 -Hd -2 -Ni 26 -Nx 1637.00 -Ny 546.00 -Nz 0.00 -Ne -1.000000 -Nl MAC -Nw --- -Ma 0 -Md ffffffff -Ms 27 -Mt 800 -Is 39.255 -Id -1.255 -It AODV -Il 48 -If 0 -Ii 0 -Iv 28 -P aodv -Pt 0x2 -Ph 3 -Pb 1 -Pd 0 -Pds 0 -Ps 40 -Pss 4 -Pc REQUEST 
r -t 1.006993656 -Hs 38 -Hd -2 -Ni 38 -Nx 1628.00 -Ny 864.00 -Nz 0.00 -Ne -1.000000 -Nl MAC -Nw --- -Ma 0 -Md ffffffff -Ms 27 -Mt 800 -Is 39.255 -Id -1.255 -It AODV -Il 48 -If 0 -Ii 0 -Iv 28 -P aodv -Pt 0x2 -Ph 3 -Pb 1 -Pd 0 -Pds 0 -Ps 40 -Pss 4 -Pc REQUEST 
r -t 1.007018314 -Hs 18 -Hd -2 -Ni 18 -Nx 1758.00 -Ny 577.00 -Nz 0.00 -Ne -1.000000 -Nl RTR -Nw --- -Ma 0 -Md ffffffff -Ms 27 -Mt 800 -Is 39.255 -Id -1.255 -It AODV -Il 48 -If 0 -Ii 0 -Iv 28 -P aodv -Pt 0x2 -Ph 3 -Pb 1 -Pd 0 -Pds 0 -Ps 40 -Pss 4 -Pc REQUEST 
r -t 1.007018505 -Hs 19 -Hd -2 -Ni 19 -Nx 1779.00 -Ny 843.00 -Nz 0.00 -Ne -1.000000 -Nl RTR -Nw --- -Ma 0 -Md ffffffff -Ms 27 -Mt 800 -Is 39.255 -Id -1.255 -It AODV -Il 48 -If 0 -Ii 0 -Iv 28 -P aodv -Pt 0x2 -Ph 3 -Pb 1 -Pd 0 -Pds 0 -Ps 40 -Pss 4 -Pc REQUEST 
r -t 1.007018516 -Hs 26 -Hd -2 -Ni 26 -Nx 1637.00 -Ny 546.00 -Nz 0.00 -Ne -1.000000 -Nl RTR -Nw --- -Ma 0 -Md ffffffff -Ms 27 -Mt 800 -Is 39.255 -Id -1.255 -It AODV -Il 48 -If 0 -Ii 0 -Iv 28 -P aodv -Pt 0x2 -Ph 3 -Pb 1 -Pd 0 -Pds 0 -Ps 40 -Pss 4 -Pc REQUEST 
r -t 1.007018656 -Hs 38 -Hd -2 -Ni 38 -Nx 1628.00 -Ny 864.00 -Nz 0.00 -Ne -1.000000 -Nl RTR -Nw --- -Ma 0 -Md ffffffff -Ms 27 -Mt 800 -Is 39.255 -Id -1.255 -It AODV -Il 48 -If 0 -Ii 0 -Iv 28 -P aodv -Pt 0x2 -Ph 3 -Pb 1 -Pd 0 -Pds 0 -Ps 40 -Pss 4 -Pc REQUEST 
r -t 1.007191689 -Hs 16 -Hd -2 -Ni 16 -Nx 1184.00 -Ny 509.00 -Nz 0.00 -Ne -1.000000 -Nl MAC -Nw --- -Ma 0 -Md ffffffff -Ms 2d -Mt 800 -Is 45.255 -Id -1.255 -It AODV -Il 48 -If 0 -Ii 0 -Iv 28 -P aodv -Pt 0x2 -Ph 3 -Pb 1 -Pd 0 -Pds 0 -Ps 40 -Pss 4 -Pc REQUEST 
r -t 1.007191842 -Hs 27 -Hd -2 -Ni 27 -Nx 997.00 -Ny 473.00 -Nz 0.00 -Ne -1.000000 -Nl MAC -Nw --- -Ma 0 -Md ffffffff -Ms 2d -Mt 800 -Is 45.255 -Id -1.255 -It AODV -Il 48 -If 0 -Ii 0 -Iv 28 -P aodv -Pt 0x2 -Ph 3 -Pb 1 -Pd 0 -Pds 0 -Ps 40 -Pss 4 -Pc REQUEST 
r -t 1.007191976 -Hs 42 -Hd -2 -Ni 42 -Nx 1035.00 -Ny 278.00 -Nz 0.00 -Ne -1.000000 -Nl MAC -Nw --- -Ma 0 -Md ffffffff -Ms 2d -Mt 800 -Is 45.255 -Id -1.255 -It AODV -Il 48 -If 0 -Ii 0 -Iv 28 -P aodv -Pt 0x2 -Ph 3 -Pb 1 -Pd 0 -Pds 0 -Ps 40 -Pss 4 -Pc REQUEST 
r -t 1.007191990 -Hs 44 -Hd -2 -Ni 44 -Nx 1089.00 -Ny 611.00 -Nz 0.00 -Ne -1.000000 -Nl MAC -Nw --- -Ma 0 -Md ffffffff -Ms 2d -Mt 800 -Is 45.255 -Id -1.255 -It AODV -Il 48 -If 0 -Ii 0 -Iv 28 -P aodv -Pt 0x2 -Ph 3 -Pb 1 -Pd 0 -Pds 0 -Ps 40 -Pss 4 -Pc REQUEST 
r -t 1.007192013 -Hs 9 -Hd -2 -Ni 9 -Nx 1148.00 -Ny 240.00 -Nz 0.00 -Ne -1.000000 -Nl MAC -Nw --- -Ma 0 -Md ffffffff -Ms 2d -Mt 800 -Is 45.255 -Id -1.255 -It AODV -Il 48 -If 0 -Ii 0 -Iv 28 -P aodv -Pt 0x2 -Ph 3 -Pb 1 -Pd 0 -Pds 0 -Ps 40 -Pss 4 -Pc REQUEST 
d -t 1.007192035 -Hs 46 -Hd -2 -Ni 46 -Nx 1307.00 -Ny 522.00 -Nz 0.00 -Ne -1.000000 -Nl MAC -Nw COL -Ma 0 -Md ffffffff -Ms 2d -Mt 800 -Is 45.255 -Id -1.255 -It AODV -Il 106 -If 0 -Ii 0 -Iv 28 -P aodv -Pt 0x2 -Ph 3 -Pb 1 -Pd 0 -Pds 0 -Ps 40 -Pss 4 -Pc REQUEST 
d -t 1.007192088 -Hs 47 -Hd -2 -Ni 47 -Nx 1228.00 -Ny 622.00 -Nz 0.00 -Ne -1.000000 -Nl MAC -Nw COL -Ma 0 -Md ffffffff -Ms 2d -Mt 800 -Is 45.255 -Id -1.255 -It AODV -Il 106 -If 0 -Ii 0 -Iv 28 -P aodv -Pt 0x2 -Ph 3 -Pb 1 -Pd 0 -Pds 0 -Ps 40 -Pss 4 -Pc REQUEST 
d -t 1.007192171 -Hs 10 -Hd -2 -Ni 10 -Nx 1358.00 -Ny 356.00 -Nz 0.00 -Ne -1.000000 -Nl MAC -Nw COL -Ma 0 -Md ffffffff -Ms 2d -Mt 800 -Is 45.255 -Id -1.255 -It AODV -Il 106 -If 0 -Ii 0 -Iv 28 -P aodv -Pt 0x2 -Ph 3 -Pb 1 -Pd 0 -Pds 0 -Ps 40 -Pss 4 -Pc REQUEST 
r -t 1.007216689 -Hs 16 -Hd -2 -Ni 16 -Nx 1184.00 -Ny 509.00 -Nz 0.00 -Ne -1.000000 -Nl RTR -Nw --- -Ma 0 -Md ffffffff -Ms 2d -Mt 800 -Is 45.255 -Id -1.255 -It AODV -Il 48 -If 0 -Ii 0 -Iv 28 -P aodv -Pt 0x2 -Ph 3 -Pb 1 -Pd 0 -Pds 0 -Ps 40 -Pss 4 -Pc REQUEST 
r -t 1.007216842 -Hs 27 -Hd -2 -Ni 27 -Nx 997.00 -Ny 473.00 -Nz 0.00 -Ne -1.000000 -Nl RTR -Nw --- -Ma 0 -Md ffffffff -Ms 2d -Mt 800 -Is 45.255 -Id -1.255 -It AODV -Il 48 -If 0 -Ii 0 -Iv 28 -P aodv -Pt 0x2 -Ph 3 -Pb 1 -Pd 0 -Pds 0 -Ps 40 -Pss 4 -Pc REQUEST 
r -t 1.007216976 -Hs 42 -Hd -2 -Ni 42 -Nx 1035.00 -Ny 278.00 -Nz 0.00 -Ne -1.000000 -Nl RTR -Nw --- -Ma 0 -Md ffffffff -Ms 2d -Mt 800 -Is 45.255 -Id -1.255 -It AODV -Il 48 -If 0 -Ii 0 -Iv 28 -P aodv -Pt 0x2 -Ph 3 -Pb 1 -Pd 0 -Pds 0 -Ps 40 -Pss 4 -Pc REQUEST 
r -t 1.007216990 -Hs 44 -Hd -2 -Ni 44 -Nx 1089.00 -Ny 611.00 -Nz 0.00 -Ne -1.000000 -Nl RTR -Nw --- -Ma 0 -Md ffffffff -Ms 2d -Mt 800 -Is 45.255 -Id -1.255 -It AODV -Il 48 -If 0 -Ii 0 -Iv 28 -P aodv -Pt 0x2 -Ph 3 -Pb 1 -Pd 0 -Pds 0 -Ps 40 -Pss 4 -Pc REQUEST 
r -t 1.007217013 -Hs 9 -Hd -2 -Ni 9 -Nx 1148.00 -Ny 240.00 -Nz 0.00 -Ne -1.000000 -Nl RTR -Nw --- -Ma 0 -Md ffffffff -Ms 2d -Mt 800 -Is 45.255 -Id -1.255 -It AODV -Il 48 -If 0 -Ii 0 -Iv 28 -P aodv -Pt 0x2 -Ph 3 -Pb 1 -Pd 0 -Pds 0 -Ps 40 -Pss 4 -Pc REQUEST 
s -t 1.007666447 -Hs 17 -Hd -2 -Ni 17 -Nx 1367.00 -Ny 650.00 -Nz 0.00 -Ne -1.000000 -Nl MAC -Nw --- -Ma 0 -Md ffffffff -Ms 11 -Mt 800 -Is 17.255 -Id -1.255 -It AODV -Il 106 -If 0 -Ii 0 -Iv 29 -P aodv -Pt 0x2 -Ph 2 -Pb 1 -Pd 0 -Pds 0 -Ps 40 -Pss 4 -Pc REQUEST 
s -t 1.008359054 -Hs 44 -Hd -2 -Ni 44 -Nx 1089.00 -Ny 611.00 -Nz 0.00 -Ne -1.000000 -Nl RTR -Nw --- -Ma 0 -Md ffffffff -Ms 2e -Mt 800 -Is 44.255 -Id -1.255 -It AODV -Il 48 -If 0 -Ii 0 -Iv 28 -P aodv -Pt 0x2 -Ph 3 -Pb 1 -Pd 0 -Pds 0 -Ps 40 -Pss 4 -Pc REQUEST 
r -t 1.008514919 -Hs 46 -Hd -2 -Ni 46 -Nx 1307.00 -Ny 522.00 -Nz 0.00 -Ne -1.000000 -Nl MAC -Nw --- -Ma 0 -Md ffffffff -Ms 11 -Mt 800 -Is 17.255 -Id -1.255 -It AODV -Il 48 -If 0 -Ii 0 -Iv 29 -P aodv -Pt 0x2 -Ph 2 -Pb 1 -Pd 0 -Pds 0 -Ps 40 -Pss 4 -Pc REQUEST 
r -t 1.008514920 -Hs 47 -Hd -2 -Ni 47 -Nx 1228.00 -Ny 622.00 -Nz 0.00 -Ne -1.000000 -Nl MAC -Nw --- -Ma 0 -Md ffffffff -Ms 11 -Mt 800 -Is 17.255 -Id -1.255 -It AODV -Il 48 -If 0 -Ii 0 -Iv 29 -P aodv -Pt 0x2 -Ph 2 -Pb 1 -Pd 0 -Pds 0 -Ps 40 -Pss 4 -Pc REQUEST 
r -t 1.008514972 -Hs 25 -Hd -2 -Ni 25 -Nx 1460.00 -Ny 777.00 -Nz 0.00 -Ne -1.000000 -Nl MAC -Nw --- -Ma 0 -Md ffffffff -Ms 11 -Mt 800 -Is 17.255 -Id -1.255 -It AODV -Il 48 -If 0 -Ii 0 -Iv 29 -P aodv -Pt 0x2 -Ph 2 -Pb 1 -Pd 0 -Pds 0 -Ps 40 -Pss 4 -Pc REQUEST 
r -t 1.008515019 -Hs 40 -Hd -2 -Ni 40 -Nx 1474.00 -Ny 516.00 -Nz 0.00 -Ne -1.000000 -Nl MAC -Nw --- -Ma 0 -Md ffffffff -Ms 11 -Mt 800 -Is 17.255 -Id -1.255 -It AODV -Il 48 -If 0 -Ii 0 -Iv 29 -P aodv -Pt 0x2 -Ph 2 -Pb 1 -Pd 0 -Pds 0 -Ps 40 -Pss 4 -Pc REQUEST 
r -t 1.008515065 -Hs 37 -Hd -2 -Ni 37 -Nx 1195.00 -Ny 719.00 -Nz 0.00 -Ne -1.000000 -Nl MAC -Nw --- -Ma 0 -Md ffffffff -Ms 11 -Mt 800 -Is 17.255 -Id -1.255 -It AODV -Il 48 -If 0 -Ii 0 -Iv 29 -P aodv -Pt 0x2 -Ph 2 -Pb 1 -Pd 0 -Pds 0 -Ps 40 -Pss 4 -Pc REQUEST 
r -t 1.008515146 -Hs 35 -Hd -2 -Ni 35 -Nx 1329.00 -Ny 856.00 -Nz 0.00 -Ne -1.000000 -Nl MAC -Nw --- -Ma 0 -Md ffffffff -Ms 11 -Mt 800 -Is 17.255 -Id -1.255 -It AODV -Il 48 -If 0 -Ii 0 -Iv 29 -P aodv -Pt 0x2 -Ph 2 -Pb 1 -Pd 0 -Pds 0 -Ps 40 -Pss 4 -Pc REQUEST 
r -t 1.008515217 -Hs 16 -Hd -2 -Ni 16 -Nx 1184.00 -Ny 509.00 -Nz 0.00 -Ne -1.000000 -Nl MAC -Nw --- -Ma 0 -Md ffffffff -Ms 11 -Mt 800 -Is 17.255 -Id -1.255 -It AODV -Il 48 -If 0 -Ii 0 -Iv 29 -P aodv -Pt 0x2 -Ph 2 -Pb 1 -Pd 0 -Pds 0 -Ps 40 -Pss 4 -Pc REQUEST 
r -t 1.008539919 -Hs 46 -Hd -2 -Ni 46 -Nx 1307.00 -Ny 522.00 -Nz 0.00 -Ne -1.000000 -Nl RTR -Nw --- -Ma 0 -Md ffffffff -Ms 11 -Mt 800 -Is 17.255 -Id -1.255 -It AODV -Il 48 -If 0 -Ii 0 -Iv 29 -P aodv -Pt 0x2 -Ph 2 -Pb 1 -Pd 0 -Pds 0 -Ps 40 -Pss 4 -Pc REQUEST 
r -t 1.008539920 -Hs 47 -Hd -2 -Ni 47 -Nx 1228.00 -Ny 622.00 -Nz 0.00 -Ne -1.000000 -Nl RTR -Nw --- -Ma 0 -Md ffffffff -Ms 11 -Mt 800 -Is 17.255 -Id -1.255 -It AODV -Il 48 -If 0 -Ii 0 -Iv 29 -P aodv -Pt 0x2 -Ph 2 -Pb 1 -Pd 0 -Pds 0 -Ps 40 -Pss 4 -Pc REQUEST 
r -t 1.008539972 -Hs 25 -Hd -2 -Ni 25 -Nx 1460.00 -Ny 777.00 -Nz 0.00 -Ne -1.000000 -Nl RTR -Nw --- -Ma 0 -Md ffffffff -Ms 11 -Mt 800 -Is 17.255 -Id -1.255 -It AODV -Il 48 -If 0 -Ii 0 -Iv 29 -P aodv -Pt 0x2 -Ph 2 -Pb 1 -Pd 0 -Pds 0 -Ps 40 -Pss 4 -Pc REQUEST 
r -t 1.008540019 -Hs 40 -Hd -2 -Ni 40 -Nx 1474.00 -Ny 516.00 -Nz 0.00 -Ne -1.000000 -Nl RTR -Nw --- -Ma 0 -Md ffffffff -Ms 11 -Mt 800 -Is 17.255 -Id -1.255 -It AODV -Il 48 -If 0 -Ii 0 -Iv 29 -P aodv -Pt 0x2 -Ph 2 -Pb 1 -Pd 0 -Pds 0 -Ps 40 -Pss 4 -Pc REQUEST 
r -t 1.008540065 -Hs 37 -Hd -2 -Ni 37 -Nx 1195.00 -Ny 719.00 -Nz 0.00 -Ne -1.000000 -Nl RTR -Nw --- -Ma 0 -Md ffffffff -Ms 11 -Mt 800 -Is 17.255 -Id -1.255 -It AODV -Il 48 -If 0 -Ii 0 -Iv 29 -P aodv -Pt 0x2 -Ph 2 -Pb 1 -Pd 0 -Pds 0 -Ps 40 -Pss 4 -Pc REQUEST 
r -t 1.008540146 -Hs 35 -Hd -2 -Ni 35 -Nx 1329.00 -Ny 856.00 -Nz 0.00 -Ne -1.000000 -Nl RTR -Nw --- -Ma 0 -Md ffffffff -Ms 11 -Mt 800 -Is 17.255 -Id -1.255 -It AODV -Il 48 -If 0 -Ii 0 -Iv 29 -P aodv -Pt 0x2 -Ph 2 -Pb 1 -Pd 0 -Pds 0 -Ps 40 -Pss 4 -Pc REQUEST 
r -t 1.008540217 -Hs 16 -Hd -2 -Ni 16 -Nx 1184.00 -Ny 509.00 -Nz 0.00 -Ne -1.000000 -Nl RTR -Nw --- -Ma 0 -Md ffffffff -Ms 11 -Mt 800 -Is 17.255 -Id -1.255 -It AODV -Il 48 -If 0 -Ii 0 -Iv 29 -P aodv -Pt 0x2 -Ph 2 -Pb 1 -Pd 0 -Pds 0 -Ps 40 -Pss 4 -Pc REQUEST 
s -t 1.009047667 -Hs 18 -Hd -2 -Ni 18 -Nx 1758.00 -Ny 577.00 -Nz 0.00 -Ne -1.000000 -Nl RTR -Nw --- -Ma 0 -Md ffffffff -Ms 1a -Mt 800 -Is 18.255 -Id -1.255 -It AODV -Il 48 -If 0 -Ii 0 -Iv 28 -P aodv -Pt 0x2 -Ph 3 -Pb 1 -Pd 0 -Pds 0 -Ps 40 -Pss 4 -Pc REQUEST 
s -t 1.009262667 -Hs 18 -Hd -2 -Ni 18 -Nx 1758.00 -Ny 577.00 -Nz 0.00 -Ne -1.000000 -Nl MAC -Nw --- -Ma 0 -Md ffffffff -Ms 12 -Mt 800 -Is 18.255 -Id -1.255 -It AODV -Il 106 -If 0 -Ii 0 -Iv 28 -P aodv -Pt 0x2 -Ph 3 -Pb 1 -Pd 0 -Pds 0 -Ps 40 -Pss 4 -Pc REQUEST 
s -t 1.009289383 -Hs 44 -Hd -2 -Ni 44 -Nx 1089.00 -Ny 611.00 -Nz 0.00 -Ne -1.000000 -Nl MAC -Nw --- -Ma 0 -Md ffffffff -Ms 2c -Mt 800 -Is 44.255 -Id -1.255 -It AODV -Il 106 -If 0 -Ii 0 -Iv 28 -P aodv -Pt 0x2 -Ph 3 -Pb 1 -Pd 0 -Pds 0 -Ps 40 -Pss 4 -Pc REQUEST 
s -t 1.009388608 -Hs 9 -Hd -2 -Ni 9 -Nx 1148.00 -Ny 240.00 -Nz 0.00 -Ne -1.000000 -Nl RTR -Nw --- -Ma 0 -Md ffffffff -Ms 2d -Mt 800 -Is 9.255 -Id -1.255 -It AODV -Il 48 -If 0 -Ii 0 -Iv 27 -P aodv -Pt 0x2 -Ph 4 -Pb 1 -Pd 0 -Pds 0 -Ps 40 -Pss 4 -Pc REQUEST 
s -t 1.009400213 -Hs 10 -Hd -2 -Ni 10 -Nx 1358.00 -Ny 356.00 -Nz 0.00 -Ne -1.000000 -Nl RTR -Nw --- -Ma 0 -Md ffffffff -Ms 28 -Mt 800 -Is 10.255 -Id -1.255 -It AODV -Il 48 -If 0 -Ii 0 -Iv 29 -P aodv -Pt 0x2 -Ph 2 -Pb 1 -Pd 0 -Pds 0 -Ps 40 -Pss 4 -Pc REQUEST 
s -t 1.010065551 -Hs 27 -Hd -2 -Ni 27 -Nx 997.00 -Ny 473.00 -Nz 0.00 -Ne -1.000000 -Nl RTR -Nw --- -Ma 0 -Md ffffffff -Ms 10 -Mt 800 -Is 27.255 -Id -1.255 -It AODV -Il 48 -If 0 -Ii 0 -Iv 27 -P aodv -Pt 0x2 -Ph 4 -Pb 1 -Pd 0 -Pds 0 -Ps 40 -Pss 4 -Pc REQUEST 
r -t 1.010111028 -Hs 39 -Hd -2 -Ni 39 -Nx 1736.00 -Ny 683.00 -Nz 0.00 -Ne -1.000000 -Nl MAC -Nw --- -Ma 0 -Md ffffffff -Ms 12 -Mt 800 -Is 18.255 -Id -1.255 -It AODV -Il 48 -If 0 -Ii 0 -Iv 28 -P aodv -Pt 0x2 -Ph 3 -Pb 1 -Pd 0 -Pds 0 -Ps 40 -Pss 4 -Pc REQUEST 
r -t 1.010111083 -Hs 26 -Hd -2 -Ni 26 -Nx 1637.00 -Ny 546.00 -Nz 0.00 -Ne -1.000000 -Nl MAC -Nw --- -Ma 0 -Md ffffffff -Ms 12 -Mt 800 -Is 18.255 -Id -1.255 -It AODV -Il 48 -If 0 -Ii 0 -Iv 28 -P aodv -Pt 0x2 -Ph 3 -Pb 1 -Pd 0 -Pds 0 -Ps 40 -Pss 4 -Pc REQUEST 
r -t 1.010111403 -Hs 41 -Hd -2 -Ni 41 -Nx 1739.00 -Ny 357.00 -Nz 0.00 -Ne -1.000000 -Nl MAC -Nw --- -Ma 0 -Md ffffffff -Ms 12 -Mt 800 -Is 18.255 -Id -1.255 -It AODV -Il 48 -If 0 -Ii 0 -Iv 28 -P aodv -Pt 0x2 -Ph 3 -Pb 1 -Pd 0 -Pds 0 -Ps 40 -Pss 4 -Pc REQUEST 
r -t 1.010136028 -Hs 39 -Hd -2 -Ni 39 -Nx 1736.00 -Ny 683.00 -Nz 0.00 -Ne -1.000000 -Nl RTR -Nw --- -Ma 0 -Md ffffffff -Ms 12 -Mt 800 -Is 18.255 -Id -1.255 -It AODV -Il 48 -If 0 -Ii 0 -Iv 28 -P aodv -Pt 0x2 -Ph 3 -Pb 1 -Pd 0 -Pds 0 -Ps 40 -Pss 4 -Pc REQUEST 
r -t 1.010136083 -Hs 26 -Hd -2 -Ni 26 -Nx 1637.00 -Ny 546.00 -Nz 0.00 -Ne -1.000000 -Nl RTR -Nw --- -Ma 0 -Md ffffffff -Ms 12 -Mt 800 -Is 18.255 -Id -1.255 -It AODV -Il 48 -If 0 -Ii 0 -Iv 28 -P aodv -Pt 0x2 -Ph 3 -Pb 1 -Pd 0 -Pds 0 -Ps 40 -Pss 4 -Pc REQUEST 
r -t 1.010136403 -Hs 41 -Hd -2 -Ni 41 -Nx 1739.00 -Ny 357.00 -Nz 0.00 -Ne -1.000000 -Nl RTR -Nw --- -Ma 0 -Md ffffffff -Ms 12 -Mt 800 -Is 18.255 -Id -1.255 -It AODV -Il 48 -If 0 -Ii 0 -Iv 28 -P aodv -Pt 0x2 -Ph 3 -Pb 1 -Pd 0 -Pds 0 -Ps 40 -Pss 4 -Pc REQUEST 
r -t 1.010137848 -Hs 16 -Hd -2 -Ni 16 -Nx 1184.00 -Ny 509.00 -Nz 0.00 -Ne -1.000000 -Nl MAC -Nw --- -Ma 0 -Md ffffffff -Ms 2c -Mt 800 -Is 44.255 -Id -1.255 -It AODV -Il 48 -If 0 -Ii 0 -Iv 28 -P aodv -Pt 0x2 -Ph 3 -Pb 1 -Pd 0 -Pds 0 -Ps 40 -Pss 4 -Pc REQUEST 
d -t 1.010137848 -Hs 47 -Hd -2 -Ni 47 -Nx 1228.00 -Ny 622.00 -Nz 0.00 -Ne -1.000000 -Nl MAC -Nw COL -Ma 0 -Md ffffffff -Ms 2c -Mt 800 -Is 44.255 -Id -1.255 -It AODV -Il 106 -If 0 -Ii 0 -Iv 28 -P aodv -Pt 0x2 -Ph 3 -Pb 1 -Pd 0 -Pds 0 -Ps 40 -Pss 4 -Pc REQUEST 
r -t 1.010137888 -Hs 37 -Hd -2 -Ni 37 -Nx 1195.00 -Ny 719.00 -Nz 0.00 -Ne -1.000000 -Nl MAC -Nw --- -Ma 0 -Md ffffffff -Ms 2c -Mt 800 -Is 44.255 -Id -1.255 -It AODV -Il 48 -If 0 -Ii 0 -Iv 28 -P aodv -Pt 0x2 -Ph 3 -Pb 1 -Pd 0 -Pds 0 -Ps 40 -Pss 4 -Pc REQUEST 
r -t 1.010137936 -Hs 27 -Hd -2 -Ni 27 -Nx 997.00 -Ny 473.00 -Nz 0.00 -Ne -1.000000 -Nl MAC -Nw --- -Ma 0 -Md ffffffff -Ms 2c -Mt 800 -Is 44.255 -Id -1.255 -It AODV -Il 48 -If 0 -Ii 0 -Iv 28 -P aodv -Pt 0x2 -Ph 3 -Pb 1 -Pd 0 -Pds 0 -Ps 40 -Pss 4 -Pc REQUEST 